

     Program PWSCF v.6.1 (svn rev. 13369) starts on 14May2018 at 22:57:32 

     This program is part of the open-source Quantum ESPRESSO suite
     for quantum simulation of materials; please cite
         "P. Giannozzi et al., J. Phys.:Condens. Matter 21 395502 (2009);
          URL http://www.quantum-espresso.org", 
     in publications or presentations arising from this work. More details at
     http://www.quantum-espresso.org/quote

     Serial multi-threaded version, running on    4 processor cores
     Reading input from ceo2.scf.david40.in
     Message from routine read_cards :
     DEPRECATED: no units specified in ATOMIC_POSITIONS card
     Message from routine read_cards :
     ATOMIC_POSITIONS: units set to alat

     Current dimensions of program PWSCF are:
     Max number of different atomic species (ntypx) = 10
     Max number of k-points (npk) =  40000
     Max angular momentum in pseudopotentials (lmaxx) =  3

     Program PWSCF v.6.1 (svn rev. 13369) starts on 14May2018 at 22:57:32 

     This program is part of the open-source Quantum ESPRESSO suite
     for quantum simulation of materials; please cite
         "P. Giannozzi et al., J. Phys.:Condens. Matter 21 395502 (2009);
          URL http://www.quantum-espresso.org", 
     in publications or presentations arising from this work. More details at
     http://www.quantum-espresso.org/quote

     Serial multi-threaded version, running on    4 processor cores
     Reading input from ceo2.scf.david40.in
     Message from routine read_cards :
     DEPRECATED: no units specified in ATOMIC_POSITIONS card
     Message from routine read_cards :
     ATOMIC_POSITIONS: units set to alat

     Current dimensions of program PWSCF are:
     Max number of different atomic species (ntypx) = 10
     Max number of k-points (npk) =  40000
     Max angular momentum in pseudopotentials (lmaxx) =  3

     Program PWSCF v.6.1 (svn rev. 13369) starts on 14May2018 at 22:57:32 

     This program is part of the open-source Quantum ESPRESSO suite
     for quantum simulation of materials; please cite
         "P. Giannozzi et al., J. Phys.:Condens. Matter 21 395502 (2009);
          URL http://www.quantum-espresso.org", 
     in publications or presentations arising from this work. More details at
     http://www.quantum-espresso.org/quote

     Serial multi-threaded version, running on    4 processor cores
     Reading input from ceo2.scf.david40.in
     Message from routine read_cards :
     DEPRECATED: no units specified in ATOMIC_POSITIONS card
     Message from routine read_cards :
     ATOMIC_POSITIONS: units set to alat

     Current dimensions of program PWSCF are:
     Max number of different atomic species (ntypx) = 10
     Max number of k-points (npk) =  40000
     Max angular momentum in pseudopotentials (lmaxx) =  3
     Program PWSCF v.6.1 (svn rev. 13369) starts on 14May2018 at 22:57:32 

     This program is part of the open-source Quantum ESPRESSO suite
     for quantum simulation of materials; please cite
         "P. Giannozzi et al., J. Phys.:Condens. Matter 21 395502 (2009);
          URL http://www.quantum-espresso.org", 
     in publications or presentations arising from this work. More details at
     http://www.quantum-espresso.org/quote

     Serial multi-threaded version, running on    4 processor cores
     Reading input from ceo2.scf.david40.in
     Message from routine read_cards :
     DEPRECATED: no units specified in ATOMIC_POSITIONS card
     Message from routine read_cards :
     ATOMIC_POSITIONS: units set to alat

     Current dimensions of program PWSCF are:
     Max number of different atomic species (ntypx) = 10
     Max number of k-points (npk) =  40000
     Max angular momentum in pseudopotentials (lmaxx) =  3
               file O.pbe-nl-rrkjus_psl.1.0.0.UPF: wavefunction(s)  2S renormalized
               file O.pbe-nl-rrkjus_psl.1.0.0.UPF: wavefunction(s)  2S renormalized
               file O.pbe-nl-rrkjus_psl.1.0.0.UPF: wavefunction(s)  2S renormalized
               file O.pbe-nl-rrkjus_psl.1.0.0.UPF: wavefunction(s)  2S renormalized
               file Ce.pbe-spdfn-rrkjus_psl.1.0.0.UPF: wavefunction(s)  4F renormalized
               file Ce.pbe-spdfn-rrkjus_psl.1.0.0.UPF: wavefunction(s)  4F renormalized
               file Ce.pbe-spdfn-rrkjus_psl.1.0.0.UPF: wavefunction(s)  4F renormalized
               file Ce.pbe-spdfn-rrkjus_psl.1.0.0.UPF: wavefunction(s)  4F renormalized

     G-vector sticks info
     --------------------
     sticks:   dense  smooth     PW     G-vecs:    dense   smooth      PW
     Sum         583     583    187                 9185     9185    1591



     bravais-lattice index     =            2
     lattice parameter (alat)  =      10.2253  a.u.
     unit-cell volume          =     267.2811 (a.u.)^3
     number of atoms/cell      =            3
     number of atomic types    =            2
     number of electrons       =        34.00
     number of Kohn-Sham states=           17
     kinetic-energy cutoff     =      40.0000  Ry
     charge density cutoff     =     160.0000  Ry
     convergence threshold     =      1.0E-08
     mixing beta               =       0.7000
     number of iterations used =            8  plain     mixing
     Exchange-correlation      = PBE ( 1  4  3  4 0 0)

     celldm(1)=  10.225300  celldm(2)=   0.000000  celldm(3)=   0.000000
     celldm(4)=   0.000000  celldm(5)=   0.000000  celldm(6)=   0.000000

     crystal axes: (cart. coord. in units of alat)
               a(1) = (  -0.500000   0.000000   0.500000 )  
               a(2) = (   0.000000   0.500000   0.500000 )  
               a(3) = (  -0.500000   0.500000   0.000000 )  

     reciprocal axes: (cart. coord. in units 2 pi/alat)
               b(1) = ( -1.000000 -1.000000  1.000000 )  
               b(2) = (  1.000000  1.000000  1.000000 )  
               b(3) = ( -1.000000  1.000000 -1.000000 )  


     PseudoPot. # 1 for  O read from file:
     /home/dmitry/qe/qe-6.1/pseudo/O.pbe-nl-rrkjus_psl.1.0.0.UPF
     MD5 check sum: 41aa6daaf7b486e514118ed2fcffca44
     Pseudo is Ultrasoft + core correction, Zval =  6.0
     Generated using "atomic" code by A. Dal Corso  v.6.1 svn rev. 13369
     Using radial grid of 1095 points,  4 beta functions with: 
                l(1) =   0
                l(2) =   0
                l(3) =   1
                l(4) =   1
     Q(r) pseudized with 0 coefficients 


     PseudoPot. # 2 for Ce read from file:
     /home/dmitry/qe/qe-6.1/pseudo/Ce.pbe-spdfn-rrkjus_psl.1.0.0.UPF
     MD5 check sum: 584ada09c8d63c147a4eb0bd2f8e9a4c
     Pseudo is Ultrasoft + core correction, Zval = 22.0
     Generated using "atomic" code by A. Dal Corso  v.6.1 svn rev. 13369
     Using radial grid of 1255 points,  8 beta functions with: 
                l(1) =   0
                l(2) =   0
                l(3) =   1
                l(4) =   1
                l(5) =   2
                l(6) =   2
                l(7) =   3
                l(8) =   3
     Q(r) pseudized with 0 coefficients 


     atomic species   valence    mass     pseudopotential
        O              6.00    15.99900      O( 1.00)
        Ce            22.00   140.12000     Ce( 1.00)


     Simplified LDA+U calculation (l_max = 1) with parameters (eV):
     atomic species    L          U    alpha       J0     beta
        O              1     4.0000   0.0000   0.0000   0.0000



     48 Sym. Ops., with inversion, found



   Cartesian axes

     site n.     atom                  positions (alat units)
         1           Ce  tau(   1) = (   0.0000000   0.0000000   0.0000000  )
         2           O   tau(   2) = (   0.2500000   0.2500000   0.2500000  )
         3           O   tau(   3) = (   0.7500000   0.7500000   0.7500000  )

     number of k points=     6
                       cart. coord. in units 2pi/alat
        k(    1) = (  -0.1666667   0.1666667   0.1666667), wk =   0.1481481
        k(    2) = (   0.5000000  -0.5000000   0.8333333), wk =   0.4444444
        k(    3) = (   0.1666667  -0.1666667   0.5000000), wk =   0.4444444
        k(    4) = (  -0.1666667  -1.1666667   0.1666667), wk =   0.4444444
        k(    5) = (  -0.5000000  -0.8333333  -0.1666667), wk =   0.4444444
        k(    6) = (   0.5000000  -0.5000000  -0.5000000), wk =   0.0740741

     Dense  grid:     9185 G-vectors     FFT dimensions: (  30,  30,  30)

     Estimated max dynamical RAM per process >      11.21MB

     G-vector sticks info
     --------------------
     sticks:   dense  smooth     PW     G-vecs:    dense   smooth      PW
     Sum         583     583    187                 9185     9185    1591



     bravais-lattice index     =            2
     lattice parameter (alat)  =      10.2253  a.u.
     unit-cell volume          =     267.2811 (a.u.)^3
     number of atoms/cell      =            3
     number of atomic types    =            2
     number of electrons       =        34.00
     number of Kohn-Sham states=           17
     kinetic-energy cutoff     =      40.0000  Ry
     charge density cutoff     =     160.0000  Ry
     convergence threshold     =      1.0E-08
     mixing beta               =       0.7000
     number of iterations used =            8  plain     mixing
     Exchange-correlation      = PBE ( 1  4  3  4 0 0)

     celldm(1)=  10.225300  celldm(2)=   0.000000  celldm(3)=   0.000000
     celldm(4)=   0.000000  celldm(5)=   0.000000  celldm(6)=   0.000000

     crystal axes: (cart. coord. in units of alat)
               a(1) = (  -0.500000   0.000000   0.500000 )  
               a(2) = (   0.000000   0.500000   0.500000 )  
               a(3) = (  -0.500000   0.500000   0.000000 )  

     reciprocal axes: (cart. coord. in units 2 pi/alat)
               b(1) = ( -1.000000 -1.000000  1.000000 )  
               b(2) = (  1.000000  1.000000  1.000000 )  
               b(3) = ( -1.000000  1.000000 -1.000000 )  


     PseudoPot. # 1 for  O read from file:
     /home/dmitry/qe/qe-6.1/pseudo/O.pbe-nl-rrkjus_psl.1.0.0.UPF
     MD5 check sum: 41aa6daaf7b486e514118ed2fcffca44
     Pseudo is Ultrasoft + core correction, Zval =  6.0
     Generated using "atomic" code by A. Dal Corso  v.6.1 svn rev. 13369
     Using radial grid of 1095 points,  4 beta functions with: 
                l(1) =   0
                l(2) =   0
                l(3) =   1
                l(4) =   1
     Q(r) pseudized with 0 coefficients 


     PseudoPot. # 2 for Ce read from file:
     /home/dmitry/qe/qe-6.1/pseudo/Ce.pbe-spdfn-rrkjus_psl.1.0.0.UPF
     MD5 check sum: 584ada09c8d63c147a4eb0bd2f8e9a4c
     Pseudo is Ultrasoft + core correction, Zval = 22.0
     Generated using "atomic" code by A. Dal Corso  v.6.1 svn rev. 13369
     Using radial grid of 1255 points,  8 beta functions with: 
                l(1) =   0
                l(2) =   0
                l(3) =   1
                l(4) =   1
                l(5) =   2
                l(6) =   2
                l(7) =   3
                l(8) =   3
     Q(r) pseudized with 0 coefficients 


     atomic species   valence    mass     pseudopotential
        O              6.00    15.99900      O( 1.00)
        Ce            22.00   140.12000     Ce( 1.00)


     Simplified LDA+U calculation (l_max = 1) with parameters (eV):
     atomic species    L          U    alpha       J0     beta
        O              1     4.0000   0.0000   0.0000   0.0000



     48 Sym. Ops., with inversion, found



   Cartesian axes

     site n.     atom                  positions (alat units)
         1           Ce  tau(   1) = (   0.0000000   0.0000000   0.0000000  )
         2           O   tau(   2) = (   0.2500000   0.2500000   0.2500000  )
         3           O   tau(   3) = (   0.7500000   0.7500000   0.7500000  )

     number of k points=     6
                       cart. coord. in units 2pi/alat
        k(    1) = (  -0.1666667   0.1666667   0.1666667), wk =   0.1481481
        k(    2) = (   0.5000000  -0.5000000   0.8333333), wk =   0.4444444
        k(    3) = (   0.1666667  -0.1666667   0.5000000), wk =   0.4444444
        k(    4) = (  -0.1666667  -1.1666667   0.1666667), wk =   0.4444444
        k(    5) = (  -0.5000000  -0.8333333  -0.1666667), wk =   0.4444444
        k(    6) = (   0.5000000  -0.5000000  -0.5000000), wk =   0.0740741

     Dense  grid:     9185 G-vectors     FFT dimensions: (  30,  30,  30)

     Estimated max dynamical RAM per process >      11.21MB

     G-vector sticks info
     --------------------
     sticks:   dense  smooth     PW     G-vecs:    dense   smooth      PW
     Sum         583     583    187                 9185     9185    1591



     bravais-lattice index     =            2
     lattice parameter (alat)  =      10.2253  a.u.
     unit-cell volume          =     267.2811 (a.u.)^3
     number of atoms/cell      =            3
     number of atomic types    =            2
     number of electrons       =        34.00
     number of Kohn-Sham states=           17
     kinetic-energy cutoff     =      40.0000  Ry
     charge density cutoff     =     160.0000  Ry
     convergence threshold     =      1.0E-08
     mixing beta               =       0.7000
     number of iterations used =            8  plain     mixing
     Exchange-correlation      = PBE ( 1  4  3  4 0 0)

     celldm(1)=  10.225300  celldm(2)=   0.000000  celldm(3)=   0.000000
     celldm(4)=   0.000000  celldm(5)=   0.000000  celldm(6)=   0.000000

     crystal axes: (cart. coord. in units of alat)
               a(1) = (  -0.500000   0.000000   0.500000 )  
               a(2) = (   0.000000   0.500000   0.500000 )  
               a(3) = (  -0.500000   0.500000   0.000000 )  

     reciprocal axes: (cart. coord. in units 2 pi/alat)
               b(1) = ( -1.000000 -1.000000  1.000000 )  
               b(2) = (  1.000000  1.000000  1.000000 )  
               b(3) = ( -1.000000  1.000000 -1.000000 )  


     PseudoPot. # 1 for  O read from file:
     /home/dmitry/qe/qe-6.1/pseudo/O.pbe-nl-rrkjus_psl.1.0.0.UPF
     MD5 check sum: 41aa6daaf7b486e514118ed2fcffca44
     Pseudo is Ultrasoft + core correction, Zval =  6.0
     Generated using "atomic" code by A. Dal Corso  v.6.1 svn rev. 13369
     Using radial grid of 1095 points,  4 beta functions with: 
                l(1) =   0
                l(2) =   0
                l(3) =   1
                l(4) =   1
     Q(r) pseudized with 0 coefficients 


     PseudoPot. # 2 for Ce read from file:
     /home/dmitry/qe/qe-6.1/pseudo/Ce.pbe-spdfn-rrkjus_psl.1.0.0.UPF
     MD5 check sum: 584ada09c8d63c147a4eb0bd2f8e9a4c
     Pseudo is Ultrasoft + core correction, Zval = 22.0
     Generated using "atomic" code by A. Dal Corso  v.6.1 svn rev. 13369
     Using radial grid of 1255 points,  8 beta functions with: 
                l(1) =   0
                l(2) =   0
                l(3) =   1
                l(4) =   1
                l(5) =   2
                l(6) =   2
                l(7) =   3
                l(8) =   3
     Q(r) pseudized with 0 coefficients 


     atomic species   valence    mass     pseudopotential
        O              6.00    15.99900      O( 1.00)
        Ce            22.00   140.12000     Ce( 1.00)


     Simplified LDA+U calculation (l_max = 1) with parameters (eV):
     atomic species    L          U    alpha       J0     beta
        O              1     4.0000   0.0000   0.0000   0.0000



     48 Sym. Ops., with inversion, found



   Cartesian axes

     site n.     atom                  positions (alat units)
         1           Ce  tau(   1) = (   0.0000000   0.0000000   0.0000000  )
         2           O   tau(   2) = (   0.2500000   0.2500000   0.2500000  )
         3           O   tau(   3) = (   0.7500000   0.7500000   0.7500000  )

     number of k points=     6
                       cart. coord. in units 2pi/alat
        k(    1) = (  -0.1666667   0.1666667   0.1666667), wk =   0.1481481
        k(    2) = (   0.5000000  -0.5000000   0.8333333), wk =   0.4444444
        k(    3) = (   0.1666667  -0.1666667   0.5000000), wk =   0.4444444
        k(    4) = (  -0.1666667  -1.1666667   0.1666667), wk =   0.4444444
        k(    5) = (  -0.5000000  -0.8333333  -0.1666667), wk =   0.4444444
        k(    6) = (   0.5000000  -0.5000000  -0.5000000), wk =   0.0740741

     Dense  grid:     9185 G-vectors     FFT dimensions: (  30,  30,  30)

     Estimated max dynamical RAM per process >      11.21MB

     G-vector sticks info
     --------------------
     sticks:   dense  smooth     PW     G-vecs:    dense   smooth      PW
     Sum         583     583    187                 9185     9185    1591



     bravais-lattice index     =            2
     lattice parameter (alat)  =      10.2253  a.u.
     unit-cell volume          =     267.2811 (a.u.)^3
     number of atoms/cell      =            3
     number of atomic types    =            2
     number of electrons       =        34.00
     number of Kohn-Sham states=           17
     kinetic-energy cutoff     =      40.0000  Ry
     charge density cutoff     =     160.0000  Ry
     convergence threshold     =      1.0E-08
     mixing beta               =       0.7000
     number of iterations used =            8  plain     mixing
     Exchange-correlation      = PBE ( 1  4  3  4 0 0)

     celldm(1)=  10.225300  celldm(2)=   0.000000  celldm(3)=   0.000000
     celldm(4)=   0.000000  celldm(5)=   0.000000  celldm(6)=   0.000000

     crystal axes: (cart. coord. in units of alat)
               a(1) = (  -0.500000   0.000000   0.500000 )  
               a(2) = (   0.000000   0.500000   0.500000 )  
               a(3) = (  -0.500000   0.500000   0.000000 )  

     reciprocal axes: (cart. coord. in units 2 pi/alat)
               b(1) = ( -1.000000 -1.000000  1.000000 )  
               b(2) = (  1.000000  1.000000  1.000000 )  
               b(3) = ( -1.000000  1.000000 -1.000000 )  


     PseudoPot. # 1 for  O read from file:
     /home/dmitry/qe/qe-6.1/pseudo/O.pbe-nl-rrkjus_psl.1.0.0.UPF
     MD5 check sum: 41aa6daaf7b486e514118ed2fcffca44
     Pseudo is Ultrasoft + core correction, Zval =  6.0
     Generated using "atomic" code by A. Dal Corso  v.6.1 svn rev. 13369
     Using radial grid of 1095 points,  4 beta functions with: 
                l(1) =   0
                l(2) =   0
                l(3) =   1
                l(4) =   1
     Q(r) pseudized with 0 coefficients 


     PseudoPot. # 2 for Ce read from file:
     /home/dmitry/qe/qe-6.1/pseudo/Ce.pbe-spdfn-rrkjus_psl.1.0.0.UPF
     MD5 check sum: 584ada09c8d63c147a4eb0bd2f8e9a4c
     Pseudo is Ultrasoft + core correction, Zval = 22.0
     Generated using "atomic" code by A. Dal Corso  v.6.1 svn rev. 13369
     Using radial grid of 1255 points,  8 beta functions with: 
                l(1) =   0
                l(2) =   0
                l(3) =   1
                l(4) =   1
                l(5) =   2
                l(6) =   2
                l(7) =   3
                l(8) =   3
     Q(r) pseudized with 0 coefficients 


     atomic species   valence    mass     pseudopotential
        O              6.00    15.99900      O( 1.00)
        Ce            22.00   140.12000     Ce( 1.00)


     Simplified LDA+U calculation (l_max = 1) with parameters (eV):
     atomic species    L          U    alpha       J0     beta
        O              1     4.0000   0.0000   0.0000   0.0000



     48 Sym. Ops., with inversion, found



   Cartesian axes

     site n.     atom                  positions (alat units)
         1           Ce  tau(   1) = (   0.0000000   0.0000000   0.0000000  )
         2           O   tau(   2) = (   0.2500000   0.2500000   0.2500000  )
         3           O   tau(   3) = (   0.7500000   0.7500000   0.7500000  )

     number of k points=     6
                       cart. coord. in units 2pi/alat
        k(    1) = (  -0.1666667   0.1666667   0.1666667), wk =   0.1481481
        k(    2) = (   0.5000000  -0.5000000   0.8333333), wk =   0.4444444
        k(    3) = (   0.1666667  -0.1666667   0.5000000), wk =   0.4444444
        k(    4) = (  -0.1666667  -1.1666667   0.1666667), wk =   0.4444444
        k(    5) = (  -0.5000000  -0.8333333  -0.1666667), wk =   0.4444444
        k(    6) = (   0.5000000  -0.5000000  -0.5000000), wk =   0.0740741

     Dense  grid:     9185 G-vectors     FFT dimensions: (  30,  30,  30)

     Estimated max dynamical RAM per process >      11.21MB

     Check: negative/imaginary core charge=   -0.000025    0.000000

     Initial potential from superposition of free atoms
     Check: negative starting charge=   -0.000187

     starting charge   33.99439, renormalised to   34.00000

     negative rho (up, down):  1.869E-04 0.000E+00
     Number of +U iterations with fixed ns =  0
     Starting occupations:
 --- enter write_ns ---
 LDA+U parameters:
U( 1)     =  4.00000000
alpha( 1) =  0.00000000
atom    2   Tr[ns(na)] =   4.00000
    eigenvalues: 
  0.667  0.667  0.667
    eigenvectors:
  1.000  0.000  0.000
  0.000  1.000  0.000
  0.000  0.000  1.000
    occupations:
  0.667  0.000  0.000
  0.000  0.667  0.000
  0.000  0.000  0.667
atom    3   Tr[ns(na)] =   4.00000
    eigenvalues: 
  0.667  0.667  0.667
    eigenvectors:
  1.000  0.000  0.000
  0.000  1.000  0.000
  0.000  0.000  1.000
    occupations:
  0.667  0.000  0.000
  0.000  0.667  0.000
  0.000  0.000  0.667
N of occupied +U levels =    8.000000
 --- exit write_ns ---

     Check: negative/imaginary core charge=   -0.000025    0.000000

     Initial potential from superposition of free atoms
     Check: negative starting charge=   -0.000187

     starting charge   33.99439, renormalised to   34.00000

     negative rho (up, down):  1.869E-04 0.000E+00
     Number of +U iterations with fixed ns =  0
     Starting occupations:
 --- enter write_ns ---
 LDA+U parameters:
U( 1)     =  4.00000000
alpha( 1) =  0.00000000
atom    2   Tr[ns(na)] =   4.00000
    eigenvalues: 
  0.667  0.667  0.667
    eigenvectors:
  1.000  0.000  0.000
  0.000  1.000  0.000
  0.000  0.000  1.000
    occupations:
  0.667  0.000  0.000
  0.000  0.667  0.000
  0.000  0.000  0.667
atom    3   Tr[ns(na)] =   4.00000
    eigenvalues: 
  0.667  0.667  0.667
    eigenvectors:
  1.000  0.000  0.000
  0.000  1.000  0.000
  0.000  0.000  1.000
    occupations:
  0.667  0.000  0.000
  0.000  0.667  0.000
  0.000  0.000  0.667
N of occupied +U levels =    8.000000
 --- exit write_ns ---

     Check: negative/imaginary core charge=   -0.000025    0.000000

     Initial potential from superposition of free atoms
     Check: negative starting charge=   -0.000187

     starting charge   33.99439, renormalised to   34.00000

     negative rho (up, down):  1.869E-04 0.000E+00
     Number of +U iterations with fixed ns =  0
     Starting occupations:
 --- enter write_ns ---
 LDA+U parameters:
U( 1)     =  4.00000000
alpha( 1) =  0.00000000
atom    2   Tr[ns(na)] =   4.00000
    eigenvalues: 
  0.667  0.667  0.667
    eigenvectors:
  1.000  0.000  0.000
  0.000  1.000  0.000
  0.000  0.000  1.000
    occupations:
  0.667  0.000  0.000
  0.000  0.667  0.000
  0.000  0.000  0.667
atom    3   Tr[ns(na)] =   4.00000
    eigenvalues: 
  0.667  0.667  0.667
    eigenvectors:
  1.000  0.000  0.000
  0.000  1.000  0.000
  0.000  0.000  1.000
    occupations:
  0.667  0.000  0.000
  0.000  0.667  0.000
  0.000  0.000  0.667
N of occupied +U levels =    8.000000
 --- exit write_ns ---

     Check: negative/imaginary core charge=   -0.000025    0.000000

     Initial potential from superposition of free atoms
     Check: negative starting charge=   -0.000187

     starting charge   33.99439, renormalised to   34.00000

     negative rho (up, down):  1.869E-04 0.000E+00
     Number of +U iterations with fixed ns =  0
     Starting occupations:
 --- enter write_ns ---
 LDA+U parameters:
U( 1)     =  4.00000000
alpha( 1) =  0.00000000
atom    2   Tr[ns(na)] =   4.00000
    eigenvalues: 
  0.667  0.667  0.667
    eigenvectors:
  1.000  0.000  0.000
  0.000  1.000  0.000
  0.000  0.000  1.000
    occupations:
  0.667  0.000  0.000
  0.000  0.667  0.000
  0.000  0.000  0.667
atom    3   Tr[ns(na)] =   4.00000
    eigenvalues: 
  0.667  0.667  0.667
    eigenvectors:
  1.000  0.000  0.000
  0.000  1.000  0.000
  0.000  0.000  1.000
    occupations:
  0.667  0.000  0.000
  0.000  0.667  0.000
  0.000  0.000  0.667
N of occupied +U levels =    8.000000
 --- exit write_ns ---
 Atomic wfc used for LDA+U Projector are NOT orthogonalized
 Atomic wfc used for LDA+U Projector are NOT orthogonalized
 Atomic wfc used for LDA+U Projector are NOT orthogonalized
 Atomic wfc used for LDA+U Projector are NOT orthogonalized
     Starting wfc are   30 randomized atomic wfcs
     Starting wfc are   30 randomized atomic wfcs
     Starting wfc are   30 randomized atomic wfcs
     Starting wfc are   30 randomized atomic wfcs

     total cpu time spent up to now is      234.7 secs

     per-process dynamical memory:    20.5 Mb

     Self-consistent Calculation

     iteration #  1     ecut=    40.00 Ry     beta=0.70
     Davidson diagonalization with overlap

     total cpu time spent up to now is      236.9 secs

     per-process dynamical memory:    20.5 Mb

     Self-consistent Calculation

     iteration #  1     ecut=    40.00 Ry     beta=0.70
     Davidson diagonalization with overlap

     total cpu time spent up to now is      239.4 secs

     per-process dynamical memory:    20.5 Mb

     Self-consistent Calculation

     iteration #  1     ecut=    40.00 Ry     beta=0.70
     Davidson diagonalization with overlap

     total cpu time spent up to now is      240.5 secs

     per-process dynamical memory:    20.5 Mb

     Self-consistent Calculation

     iteration #  1     ecut=    40.00 Ry     beta=0.70
     Davidson diagonalization with overlap
     ethr =  1.00E-02,  avg # of iterations =  2.0
     ethr =  1.00E-02,  avg # of iterations =  2.0
     ethr =  1.00E-02,  avg # of iterations =  2.0
     ethr =  1.00E-02,  avg # of iterations =  2.0
 --- enter write_ns ---
 LDA+U parameters:
U( 1)     =  4.00000000
alpha( 1) =  0.00000000
atom    2   Tr[ns(na)] =   5.92369
    eigenvalues: 
  0.987  0.987  0.987
    eigenvectors:
  0.403  0.213  0.384
  0.505  0.001  0.494
  0.092  0.786  0.122
    occupations:
  0.987 -0.000  0.000
 -0.000  0.987 -0.000
  0.000 -0.000  0.987
atom    3   Tr[ns(na)] =   5.92369
    eigenvalues: 
  0.987  0.987  0.987
    eigenvectors:
  0.522  0.168  0.310
  0.387  0.001  0.612
  0.091  0.831  0.079
    occupations:
  0.987 -0.000  0.000
 -0.000  0.987 -0.000
  0.000 -0.000  0.987
N of occupied +U levels =   11.847387
 --- exit write_ns ---
 --- enter write_ns ---
 LDA+U parameters:
U( 1)     =  4.00000000
alpha( 1) =  0.00000000
atom    2   Tr[ns(na)] =   5.92369
    eigenvalues: 
  0.987  0.987  0.987
    eigenvectors:
  0.403  0.213  0.384
  0.505  0.001  0.494
  0.092  0.786  0.122
    occupations:
  0.987 -0.000  0.000
 -0.000  0.987 -0.000
  0.000 -0.000  0.987
atom    3   Tr[ns(na)] =   5.92369
    eigenvalues: 
  0.987  0.987  0.987
    eigenvectors:
  0.522  0.168  0.310
  0.387  0.001  0.612
  0.091  0.831  0.079
    occupations:
  0.987 -0.000  0.000
 -0.000  0.987 -0.000
  0.000 -0.000  0.987
N of occupied +U levels =   11.847387
 --- exit write_ns ---
 --- enter write_ns ---
 LDA+U parameters:
U( 1)     =  4.00000000
alpha( 1) =  0.00000000
atom    2   Tr[ns(na)] =   5.92369
    eigenvalues: 
  0.987  0.987  0.987
    eigenvectors:
  0.403  0.213  0.384
  0.505  0.001  0.494
  0.092  0.786  0.122
    occupations:
  0.987 -0.000  0.000
 -0.000  0.987 -0.000
  0.000 -0.000  0.987
atom    3   Tr[ns(na)] =   5.92369
    eigenvalues: 
  0.987  0.987  0.987
    eigenvectors:
  0.522  0.168  0.310
  0.387  0.001  0.612
  0.091  0.831  0.079
    occupations:
  0.987 -0.000  0.000
 -0.000  0.987 -0.000
  0.000 -0.000  0.987
N of occupied +U levels =   11.847387
 --- exit write_ns ---
 --- enter write_ns ---
 LDA+U parameters:
U( 1)     =  4.00000000
alpha( 1) =  0.00000000
atom    2   Tr[ns(na)] =   5.92369
    eigenvalues: 
  0.987  0.987  0.987
    eigenvectors:
  0.403  0.213  0.384
  0.505  0.001  0.494
  0.092  0.786  0.122
    occupations:
  0.987 -0.000  0.000
 -0.000  0.987 -0.000
  0.000 -0.000  0.987
atom    3   Tr[ns(na)] =   5.92369
    eigenvalues: 
  0.987  0.987  0.987
    eigenvectors:
  0.522  0.168  0.310
  0.387  0.001  0.612
  0.091  0.831  0.079
    occupations:
  0.987 -0.000  0.000
 -0.000  0.987 -0.000
  0.000 -0.000  0.987
N of occupied +U levels =   11.847387
 --- exit write_ns ---

     total cpu time spent up to now is      460.6 secs

     total energy              =    -486.85114573 Ry
     Harris-Foulkes estimate   =    -491.04095600 Ry
     estimated scf accuracy    <       5.68437726 Ry

     iteration #  2     ecut=    40.00 Ry     beta=0.70
     Davidson diagonalization with overlap

     total cpu time spent up to now is      462.0 secs

     total energy              =    -486.85114573 Ry
     Harris-Foulkes estimate   =    -491.04095600 Ry
     estimated scf accuracy    <       5.68437726 Ry

     iteration #  2     ecut=    40.00 Ry     beta=0.70
     Davidson diagonalization with overlap

     total cpu time spent up to now is      464.6 secs

     total energy              =    -486.85114573 Ry
     Harris-Foulkes estimate   =    -491.04095600 Ry
     estimated scf accuracy    <       5.68437726 Ry

     iteration #  2     ecut=    40.00 Ry     beta=0.70
     Davidson diagonalization with overlap

     total cpu time spent up to now is      466.0 secs

     total energy              =    -486.85114573 Ry
     Harris-Foulkes estimate   =    -491.04095600 Ry
     estimated scf accuracy    <       5.68437726 Ry

     iteration #  2     ecut=    40.00 Ry     beta=0.70
     Davidson diagonalization with overlap
     ethr =  1.00E-02,  avg # of iterations =  6.2
     ethr =  1.00E-02,  avg # of iterations =  6.2
     ethr =  1.00E-02,  avg # of iterations =  6.2
     ethr =  1.00E-02,  avg # of iterations =  6.2

     total cpu time spent up to now is      709.6 secs

     total energy              =    -479.88399524 Ry
     Harris-Foulkes estimate   =    -493.03574096 Ry
     estimated scf accuracy    <      51.22012117 Ry

     iteration #  3     ecut=    40.00 Ry     beta=0.70
     Davidson diagonalization with overlap

     total cpu time spent up to now is      715.7 secs

     total energy              =    -479.88399524 Ry
     Harris-Foulkes estimate   =    -493.03574096 Ry
     estimated scf accuracy    <      51.22012117 Ry

     iteration #  3     ecut=    40.00 Ry     beta=0.70
     Davidson diagonalization with overlap

     total cpu time spent up to now is      716.5 secs

     total energy              =    -479.88399524 Ry
     Harris-Foulkes estimate   =    -493.03574096 Ry
     estimated scf accuracy    <      51.22012117 Ry

     iteration #  3     ecut=    40.00 Ry     beta=0.70
     Davidson diagonalization with overlap

     total cpu time spent up to now is      716.8 secs

     total energy              =    -479.88399524 Ry
     Harris-Foulkes estimate   =    -493.03574096 Ry
     estimated scf accuracy    <      51.22012117 Ry

     iteration #  3     ecut=    40.00 Ry     beta=0.70
     Davidson diagonalization with overlap
     ethr =  1.00E-02,  avg # of iterations =  4.8
     ethr =  1.00E-02,  avg # of iterations =  4.8
     ethr =  1.00E-02,  avg # of iterations =  4.8
     ethr =  1.00E-02,  avg # of iterations =  4.8

     total cpu time spent up to now is      945.8 secs

     total energy              =    -489.02939223 Ry
     Harris-Foulkes estimate   =    -489.33269412 Ry
     estimated scf accuracy    <       1.35820763 Ry

     iteration #  4     ecut=    40.00 Ry     beta=0.70
     Davidson diagonalization with overlap

     total cpu time spent up to now is      950.9 secs

     total energy              =    -489.02939223 Ry
     Harris-Foulkes estimate   =    -489.33269412 Ry
     estimated scf accuracy    <       1.35820763 Ry

     iteration #  4     ecut=    40.00 Ry     beta=0.70
     Davidson diagonalization with overlap

     total cpu time spent up to now is      951.9 secs

     total energy              =    -489.02939223 Ry
     Harris-Foulkes estimate   =    -489.33269412 Ry
     estimated scf accuracy    <       1.35820763 Ry

     iteration #  4     ecut=    40.00 Ry     beta=0.70
     Davidson diagonalization with overlap

     total cpu time spent up to now is      953.2 secs

     total energy              =    -489.02939223 Ry
     Harris-Foulkes estimate   =    -489.33269412 Ry
     estimated scf accuracy    <       1.35820763 Ry

     iteration #  4     ecut=    40.00 Ry     beta=0.70
     Davidson diagonalization with overlap
     ethr =  3.99E-03,  avg # of iterations =  1.0
     ethr =  3.99E-03,  avg # of iterations =  1.0
     ethr =  3.99E-03,  avg # of iterations =  1.0
     ethr =  3.99E-03,  avg # of iterations =  1.0

     total cpu time spent up to now is     1168.5 secs

     total energy              =    -488.88130264 Ry
     Harris-Foulkes estimate   =    -489.06158443 Ry
     estimated scf accuracy    <       0.72012793 Ry

     iteration #  5     ecut=    40.00 Ry     beta=0.70
     Davidson diagonalization with overlap

     total cpu time spent up to now is     1175.8 secs

     total energy              =    -488.88130264 Ry
     Harris-Foulkes estimate   =    -489.06158443 Ry
     estimated scf accuracy    <       0.72012793 Ry

     iteration #  5     ecut=    40.00 Ry     beta=0.70
     Davidson diagonalization with overlap

     total cpu time spent up to now is     1176.9 secs

     total energy              =    -488.88130264 Ry
     Harris-Foulkes estimate   =    -489.06158443 Ry
     estimated scf accuracy    <       0.72012793 Ry

     iteration #  5     ecut=    40.00 Ry     beta=0.70
     Davidson diagonalization with overlap

     total cpu time spent up to now is     1177.0 secs

     total energy              =    -488.88130264 Ry
     Harris-Foulkes estimate   =    -489.06158443 Ry
     estimated scf accuracy    <       0.72012793 Ry

     iteration #  5     ecut=    40.00 Ry     beta=0.70
     Davidson diagonalization with overlap
     ethr =  2.12E-03,  avg # of iterations =  1.0
     ethr =  2.12E-03,  avg # of iterations =  1.0
     ethr =  2.12E-03,  avg # of iterations =  1.0
     ethr =  2.12E-03,  avg # of iterations =  1.0

     total cpu time spent up to now is     1389.8 secs

     total energy              =    -488.79268312 Ry
     Harris-Foulkes estimate   =    -488.90061922 Ry
     estimated scf accuracy    <       0.34040737 Ry

     iteration #  6     ecut=    40.00 Ry     beta=0.70
     Davidson diagonalization with overlap

     total cpu time spent up to now is     1397.4 secs

     total energy              =    -488.79268312 Ry
     Harris-Foulkes estimate   =    -488.90061922 Ry
     estimated scf accuracy    <       0.34040737 Ry

     iteration #  6     ecut=    40.00 Ry     beta=0.70
     Davidson diagonalization with overlap

     total cpu time spent up to now is     1397.8 secs

     total energy              =    -488.79268312 Ry
     Harris-Foulkes estimate   =    -488.90061922 Ry
     estimated scf accuracy    <       0.34040737 Ry

     iteration #  6     ecut=    40.00 Ry     beta=0.70
     Davidson diagonalization with overlap

     total cpu time spent up to now is     1398.5 secs

     total energy              =    -488.79268312 Ry
     Harris-Foulkes estimate   =    -488.90061922 Ry
     estimated scf accuracy    <       0.34040737 Ry

     iteration #  6     ecut=    40.00 Ry     beta=0.70
     Davidson diagonalization with overlap
     ethr =  1.00E-03,  avg # of iterations =  3.7
     ethr =  1.00E-03,  avg # of iterations =  3.7
     ethr =  1.00E-03,  avg # of iterations =  3.7
     ethr =  1.00E-03,  avg # of iterations =  3.7

     total cpu time spent up to now is     1614.5 secs

     total energy              =    -488.80692499 Ry
     Harris-Foulkes estimate   =    -488.81941494 Ry
     estimated scf accuracy    <       0.09570814 Ry

     iteration #  7     ecut=    40.00 Ry     beta=0.70
     Davidson diagonalization with overlap

     total cpu time spent up to now is     1620.6 secs

     total energy              =    -488.80692499 Ry
     Harris-Foulkes estimate   =    -488.81941494 Ry
     estimated scf accuracy    <       0.09570814 Ry

     iteration #  7     ecut=    40.00 Ry     beta=0.70
     Davidson diagonalization with overlap

     total cpu time spent up to now is     1622.9 secs

     total energy              =    -488.80692499 Ry
     Harris-Foulkes estimate   =    -488.81941494 Ry
     estimated scf accuracy    <       0.09570814 Ry

     iteration #  7     ecut=    40.00 Ry     beta=0.70
     Davidson diagonalization with overlap

     total cpu time spent up to now is     1625.8 secs

     total energy              =    -488.80692499 Ry
     Harris-Foulkes estimate   =    -488.81941494 Ry
     estimated scf accuracy    <       0.09570814 Ry

     iteration #  7     ecut=    40.00 Ry     beta=0.70
     Davidson diagonalization with overlap
     ethr =  2.81E-04,  avg # of iterations =  3.3
     ethr =  2.81E-04,  avg # of iterations =  3.3
     ethr =  2.81E-04,  avg # of iterations =  3.3
     ethr =  2.81E-04,  avg # of iterations =  3.3

     total cpu time spent up to now is     1839.8 secs

     total energy              =    -488.78933139 Ry
     Harris-Foulkes estimate   =    -488.81634211 Ry
     estimated scf accuracy    <       0.05138590 Ry

     iteration #  8     ecut=    40.00 Ry     beta=0.70
     Davidson diagonalization with overlap

     total cpu time spent up to now is     1841.0 secs

     total energy              =    -488.78933139 Ry
     Harris-Foulkes estimate   =    -488.81634211 Ry
     estimated scf accuracy    <       0.05138590 Ry

     iteration #  8     ecut=    40.00 Ry     beta=0.70
     Davidson diagonalization with overlap

     total cpu time spent up to now is     1845.4 secs

     total energy              =    -488.78933139 Ry
     Harris-Foulkes estimate   =    -488.81634211 Ry
     estimated scf accuracy    <       0.05138590 Ry

     iteration #  8     ecut=    40.00 Ry     beta=0.70
     Davidson diagonalization with overlap

     total cpu time spent up to now is     1850.9 secs

     total energy              =    -488.78933139 Ry
     Harris-Foulkes estimate   =    -488.81634211 Ry
     estimated scf accuracy    <       0.05138590 Ry

     iteration #  8     ecut=    40.00 Ry     beta=0.70
     Davidson diagonalization with overlap
     ethr =  1.51E-04,  avg # of iterations =  4.0
     ethr =  1.51E-04,  avg # of iterations =  4.0
     ethr =  1.51E-04,  avg # of iterations =  4.0
     ethr =  1.51E-04,  avg # of iterations =  4.0

     total cpu time spent up to now is     2073.8 secs

     total energy              =    -488.80568053 Ry
     Harris-Foulkes estimate   =    -488.80807849 Ry
     estimated scf accuracy    <       0.00421320 Ry

     iteration #  9     ecut=    40.00 Ry     beta=0.70
     Davidson diagonalization with overlap

     total cpu time spent up to now is     2076.2 secs

     total energy              =    -488.80568053 Ry
     Harris-Foulkes estimate   =    -488.80807849 Ry
     estimated scf accuracy    <       0.00421320 Ry

     iteration #  9     ecut=    40.00 Ry     beta=0.70
     Davidson diagonalization with overlap

     total cpu time spent up to now is     2079.4 secs

     total energy              =    -488.80568053 Ry
     Harris-Foulkes estimate   =    -488.80807849 Ry
     estimated scf accuracy    <       0.00421320 Ry

     iteration #  9     ecut=    40.00 Ry     beta=0.70
     Davidson diagonalization with overlap

     total cpu time spent up to now is     2084.6 secs

     total energy              =    -488.80568053 Ry
     Harris-Foulkes estimate   =    -488.80807849 Ry
     estimated scf accuracy    <       0.00421320 Ry

     iteration #  9     ecut=    40.00 Ry     beta=0.70
     Davidson diagonalization with overlap
     ethr =  1.24E-05,  avg # of iterations =  5.0
     ethr =  1.24E-05,  avg # of iterations =  5.0
     ethr =  1.24E-05,  avg # of iterations =  5.0
     ethr =  1.24E-05,  avg # of iterations =  5.0

     total cpu time spent up to now is     2312.1 secs

     total energy              =    -488.80688687 Ry
     Harris-Foulkes estimate   =    -488.80786439 Ry
     estimated scf accuracy    <       0.00241426 Ry

     iteration # 10     ecut=    40.00 Ry     beta=0.70
     Davidson diagonalization with overlap

     total cpu time spent up to now is     2314.6 secs

     total energy              =    -488.80688687 Ry
     Harris-Foulkes estimate   =    -488.80786439 Ry
     estimated scf accuracy    <       0.00241426 Ry

     iteration # 10     ecut=    40.00 Ry     beta=0.70
     Davidson diagonalization with overlap

     total cpu time spent up to now is     2317.4 secs

     total energy              =    -488.80688687 Ry
     Harris-Foulkes estimate   =    -488.80786439 Ry
     estimated scf accuracy    <       0.00241426 Ry

     iteration # 10     ecut=    40.00 Ry     beta=0.70
     Davidson diagonalization with overlap

     total cpu time spent up to now is     2321.6 secs

     total energy              =    -488.80688687 Ry
     Harris-Foulkes estimate   =    -488.80786439 Ry
     estimated scf accuracy    <       0.00241426 Ry

     iteration # 10     ecut=    40.00 Ry     beta=0.70
     Davidson diagonalization with overlap
     ethr =  7.10E-06,  avg # of iterations =  3.8
     ethr =  7.10E-06,  avg # of iterations =  3.8
     ethr =  7.10E-06,  avg # of iterations =  3.8
     ethr =  7.10E-06,  avg # of iterations =  3.8

     total cpu time spent up to now is     2541.3 secs

     total energy              =    -488.80727672 Ry
     Harris-Foulkes estimate   =    -488.80727787 Ry
     estimated scf accuracy    <       0.00005940 Ry

     iteration # 11     ecut=    40.00 Ry     beta=0.70
     Davidson diagonalization with overlap

     total cpu time spent up to now is     2543.8 secs

     total energy              =    -488.80727672 Ry
     Harris-Foulkes estimate   =    -488.80727787 Ry
     estimated scf accuracy    <       0.00005940 Ry

     iteration # 11     ecut=    40.00 Ry     beta=0.70
     Davidson diagonalization with overlap

     total cpu time spent up to now is     2546.6 secs

     total energy              =    -488.80727672 Ry
     Harris-Foulkes estimate   =    -488.80727787 Ry
     estimated scf accuracy    <       0.00005940 Ry

     iteration # 11     ecut=    40.00 Ry     beta=0.70
     Davidson diagonalization with overlap

     total cpu time spent up to now is     2547.0 secs

     total energy              =    -488.80727672 Ry
     Harris-Foulkes estimate   =    -488.80727787 Ry
     estimated scf accuracy    <       0.00005940 Ry

     iteration # 11     ecut=    40.00 Ry     beta=0.70
     Davidson diagonalization with overlap
     ethr =  1.75E-07,  avg # of iterations =  5.3
     ethr =  1.75E-07,  avg # of iterations =  5.3
     ethr =  1.75E-07,  avg # of iterations =  5.3
     ethr =  1.75E-07,  avg # of iterations =  5.3

     total cpu time spent up to now is     2777.4 secs

     total energy              =    -488.80737162 Ry
     Harris-Foulkes estimate   =    -488.80736605 Ry
     estimated scf accuracy    <       0.00000242 Ry

     iteration # 12     ecut=    40.00 Ry     beta=0.70
     Davidson diagonalization with overlap

     total cpu time spent up to now is     2779.4 secs

     total energy              =    -488.80737162 Ry
     Harris-Foulkes estimate   =    -488.80736605 Ry
     estimated scf accuracy    <       0.00000242 Ry

     iteration # 12     ecut=    40.00 Ry     beta=0.70
     Davidson diagonalization with overlap

     total cpu time spent up to now is     2781.0 secs

     total energy              =    -488.80737162 Ry
     Harris-Foulkes estimate   =    -488.80736605 Ry
     estimated scf accuracy    <       0.00000242 Ry

     iteration # 12     ecut=    40.00 Ry     beta=0.70
     Davidson diagonalization with overlap

     total cpu time spent up to now is     2783.3 secs

     total energy              =    -488.80737162 Ry
     Harris-Foulkes estimate   =    -488.80736605 Ry
     estimated scf accuracy    <       0.00000242 Ry

     iteration # 12     ecut=    40.00 Ry     beta=0.70
     Davidson diagonalization with overlap
     ethr =  7.12E-09,  avg # of iterations =  5.0
     ethr =  7.12E-09,  avg # of iterations =  5.0
     ethr =  7.12E-09,  avg # of iterations =  5.0
     ethr =  7.12E-09,  avg # of iterations =  5.0

     total cpu time spent up to now is     3025.7 secs

     total energy              =    -488.80735163 Ry
     Harris-Foulkes estimate   =    -488.80737851 Ry
     estimated scf accuracy    <       0.00005300 Ry

     iteration # 13     ecut=    40.00 Ry     beta=0.70
     Davidson diagonalization with overlap

     total cpu time spent up to now is     3027.2 secs

     total energy              =    -488.80735163 Ry
     Harris-Foulkes estimate   =    -488.80737851 Ry
     estimated scf accuracy    <       0.00005300 Ry

     iteration # 13     ecut=    40.00 Ry     beta=0.70
     Davidson diagonalization with overlap

     total cpu time spent up to now is     3027.8 secs

     total energy              =    -488.80735163 Ry
     Harris-Foulkes estimate   =    -488.80737851 Ry
     estimated scf accuracy    <       0.00005300 Ry

     iteration # 13     ecut=    40.00 Ry     beta=0.70
     Davidson diagonalization with overlap

     total cpu time spent up to now is     3034.2 secs

     total energy              =    -488.80735163 Ry
     Harris-Foulkes estimate   =    -488.80737851 Ry
     estimated scf accuracy    <       0.00005300 Ry

     iteration # 13     ecut=    40.00 Ry     beta=0.70
     Davidson diagonalization with overlap
     ethr =  7.12E-09,  avg # of iterations =  5.0
     ethr =  7.12E-09,  avg # of iterations =  5.0
     ethr =  7.12E-09,  avg # of iterations =  5.0
     ethr =  7.12E-09,  avg # of iterations =  5.0

     total cpu time spent up to now is     3315.8 secs

     total energy              =    -488.80736566 Ry
     Harris-Foulkes estimate   =    -488.80736750 Ry
     estimated scf accuracy    <       0.00000611 Ry

     iteration # 14     ecut=    40.00 Ry     beta=0.70
     Davidson diagonalization with overlap

     total cpu time spent up to now is     3316.4 secs

     total energy              =    -488.80736566 Ry
     Harris-Foulkes estimate   =    -488.80736750 Ry
     estimated scf accuracy    <       0.00000611 Ry

     iteration # 14     ecut=    40.00 Ry     beta=0.70
     Davidson diagonalization with overlap

     total cpu time spent up to now is     3317.9 secs

     total energy              =    -488.80736566 Ry
     Harris-Foulkes estimate   =    -488.80736750 Ry
     estimated scf accuracy    <       0.00000611 Ry

     iteration # 14     ecut=    40.00 Ry     beta=0.70
     Davidson diagonalization with overlap

     total cpu time spent up to now is     3326.6 secs

     total energy              =    -488.80736566 Ry
     Harris-Foulkes estimate   =    -488.80736750 Ry
     estimated scf accuracy    <       0.00000611 Ry

     iteration # 14     ecut=    40.00 Ry     beta=0.70
     Davidson diagonalization with overlap
     ethr =  7.12E-09,  avg # of iterations =  3.7
     ethr =  7.12E-09,  avg # of iterations =  3.7
     ethr =  7.12E-09,  avg # of iterations =  3.7
     ethr =  7.12E-09,  avg # of iterations =  3.7

     total cpu time spent up to now is     3559.0 secs

     total energy              =    -488.80736590 Ry
     Harris-Foulkes estimate   =    -488.80736611 Ry
     estimated scf accuracy    <       0.00000080 Ry

     iteration # 15     ecut=    40.00 Ry     beta=0.70
     Davidson diagonalization with overlap

     total cpu time spent up to now is     3559.7 secs

     total energy              =    -488.80736590 Ry
     Harris-Foulkes estimate   =    -488.80736611 Ry
     estimated scf accuracy    <       0.00000080 Ry

     iteration # 15     ecut=    40.00 Ry     beta=0.70
     Davidson diagonalization with overlap

     total cpu time spent up to now is     3561.7 secs

     total energy              =    -488.80736590 Ry
     Harris-Foulkes estimate   =    -488.80736611 Ry
     estimated scf accuracy    <       0.00000080 Ry

     iteration # 15     ecut=    40.00 Ry     beta=0.70
     Davidson diagonalization with overlap

     total cpu time spent up to now is     3569.8 secs

     total energy              =    -488.80736590 Ry
     Harris-Foulkes estimate   =    -488.80736611 Ry
     estimated scf accuracy    <       0.00000080 Ry

     iteration # 15     ecut=    40.00 Ry     beta=0.70
     Davidson diagonalization with overlap
     ethr =  2.36E-09,  avg # of iterations =  2.2
     ethr =  2.36E-09,  avg # of iterations =  2.2
     ethr =  2.36E-09,  avg # of iterations =  2.2
     ethr =  2.36E-09,  avg # of iterations =  2.2

     total cpu time spent up to now is     3798.6 secs

     total energy              =    -488.80736586 Ry
     Harris-Foulkes estimate   =    -488.80736596 Ry
     estimated scf accuracy    <       0.00000034 Ry

     iteration # 16     ecut=    40.00 Ry     beta=0.70
     Davidson diagonalization with overlap

     total cpu time spent up to now is     3798.7 secs

     total energy              =    -488.80736586 Ry
     Harris-Foulkes estimate   =    -488.80736596 Ry
     estimated scf accuracy    <       0.00000034 Ry

     iteration # 16     ecut=    40.00 Ry     beta=0.70
     Davidson diagonalization with overlap

     total cpu time spent up to now is     3799.2 secs

     total energy              =    -488.80736586 Ry
     Harris-Foulkes estimate   =    -488.80736596 Ry
     estimated scf accuracy    <       0.00000034 Ry

     iteration # 16     ecut=    40.00 Ry     beta=0.70
     Davidson diagonalization with overlap

     total cpu time spent up to now is     3803.6 secs

     total energy              =    -488.80736586 Ry
     Harris-Foulkes estimate   =    -488.80736596 Ry
     estimated scf accuracy    <       0.00000034 Ry

     iteration # 16     ecut=    40.00 Ry     beta=0.70
     Davidson diagonalization with overlap
     ethr =  9.90E-10,  avg # of iterations =  4.3
     ethr =  9.90E-10,  avg # of iterations =  4.3
     ethr =  9.90E-10,  avg # of iterations =  4.3
     ethr =  9.90E-10,  avg # of iterations =  4.3

     total cpu time spent up to now is     4036.6 secs

     End of self-consistent calculation
 --- enter write_ns ---
 LDA+U parameters:
U( 1)     =  4.00000000
alpha( 1) =  0.00000000
atom    2   Tr[ns(na)] =   5.63087
    eigenvalues: 
  0.938  0.938  0.938
    eigenvectors:
  0.386  0.227  0.386
  0.540  0.006  0.454
  0.074  0.767  0.159
    occupations:
  0.938 -0.000  0.000
 -0.000  0.938 -0.000
  0.000 -0.000  0.938
atom    3   Tr[ns(na)] =   5.63087
    eigenvalues: 
  0.938  0.938  0.938
    eigenvectors:
  0.330  0.244  0.426
  0.594  0.003  0.403
  0.077  0.752  0.171
    occupations:
  0.938 -0.000  0.000
 -0.000  0.938 -0.000
  0.000 -0.000  0.938
N of occupied +U levels =   11.261743
 --- exit write_ns ---

          k =-0.1667 0.1667 0.1667 (  1149 PWs)   bands (ev):

   -89.9529 -89.9529 -89.9409 -89.5841 -89.5841 -25.5853  -6.6745  -6.1742
    -6.1742  -2.8130  -1.9518   8.2900   8.2900   8.6217  11.0052  11.2619
    11.2619

          k = 0.5000-0.5000 0.8333 (  1144 PWs)   bands (ev):

   -90.0862 -89.8789 -89.8445 -89.5558 -89.5512 -25.6048  -7.6044  -6.7427
    -6.3347  -2.2850  -1.3137   8.7411   9.3502   9.4987  10.3275  10.4746
    11.6871

          k = 0.1667-0.1667 0.5000 (  1137 PWs)   bands (ev):

   -89.8962 -89.6818 -89.6526 -89.3137 -89.1620 -25.6029  -7.3085  -6.4478
    -6.3793  -2.2997  -1.7144   8.7590   8.8100   9.3213   9.8626  11.4788
    11.4855

          k =-0.1667-1.1667 0.1667 (  1139 PWs)   bands (ev):

   -89.8508 -89.7672 -89.6721 -89.5062 -89.4698 -25.6069  -7.6755  -6.8644
    -6.5825  -2.2842  -0.9506   7.6158   9.5085   9.6577  11.2340  11.2828
    11.6179

          k =-0.5000-0.8333-0.1667 (  1144 PWs)   bands (ev):

   -89.9358 -89.8978 -89.8295 -89.7034 -89.6317 -25.6031  -7.5393  -7.1515
    -6.5600  -1.7880  -1.3384   8.4198   8.7725  10.0672  10.6017  11.1151
    11.7122

          k = 0.5000-0.5000-0.5000 (  1158 PWs)   bands (ev):

   -90.8407 -90.2240 -90.2240 -89.7750 -89.7750 -25.6073  -7.8676  -6.3313
    -6.3313  -2.8672  -0.8749   9.0664   9.0664   9.9960  10.1304  10.8261
    10.8261

     highest occupied level (ev):    11.7122

!    total energy              =    -488.80736596 Ry
     Harris-Foulkes estimate   =    -488.80736597 Ry
     estimated scf accuracy    <          2.7E-09 Ry

     The total energy is the sum of the following terms:

     one-electron contribution =    -248.09542282 Ry
     hartree contribution      =     124.98026330 Ry
     xc contribution           =     -67.41001681 Ry
     ewald contribution        =    -298.38403502 Ry
     Hubbard energy            =       0.10184539 Ry

     convergence has been achieved in  16 iterations

     total cpu time spent up to now is     4038.6 secs

     End of self-consistent calculation
 --- enter write_ns ---
 LDA+U parameters:
U( 1)     =  4.00000000
alpha( 1) =  0.00000000
atom    2   Tr[ns(na)] =   5.63087
    eigenvalues: 
  0.938  0.938  0.938
    eigenvectors:
  0.386  0.227  0.386
  0.540  0.006  0.454
  0.074  0.767  0.159
    occupations:
  0.938 -0.000  0.000
 -0.000  0.938 -0.000
  0.000 -0.000  0.938
atom    3   Tr[ns(na)] =   5.63087
    eigenvalues: 
  0.938  0.938  0.938
    eigenvectors:
  0.330  0.244  0.426
  0.594  0.003  0.403
  0.077  0.752  0.171
    occupations:
  0.938 -0.000  0.000
 -0.000  0.938 -0.000
  0.000 -0.000  0.938
N of occupied +U levels =   11.261743
 --- exit write_ns ---

          k =-0.1667 0.1667 0.1667 (  1149 PWs)   bands (ev):

   -89.9529 -89.9529 -89.9409 -89.5841 -89.5841 -25.5853  -6.6745  -6.1742
    -6.1742  -2.8130  -1.9518   8.2900   8.2900   8.6217  11.0052  11.2619
    11.2619

          k = 0.5000-0.5000 0.8333 (  1144 PWs)   bands (ev):

   -90.0862 -89.8789 -89.8445 -89.5558 -89.5512 -25.6048  -7.6044  -6.7427
    -6.3347  -2.2850  -1.3137   8.7411   9.3502   9.4987  10.3275  10.4746
    11.6871

          k = 0.1667-0.1667 0.5000 (  1137 PWs)   bands (ev):

   -89.8962 -89.6818 -89.6526 -89.3137 -89.1620 -25.6029  -7.3085  -6.4478
    -6.3793  -2.2997  -1.7144   8.7590   8.8100   9.3213   9.8626  11.4788
    11.4855

          k =-0.1667-1.1667 0.1667 (  1139 PWs)   bands (ev):

   -89.8508 -89.7672 -89.6721 -89.5062 -89.4698 -25.6069  -7.6755  -6.8644
    -6.5825  -2.2842  -0.9506   7.6158   9.5085   9.6577  11.2340  11.2828
    11.6179

          k =-0.5000-0.8333-0.1667 (  1144 PWs)   bands (ev):

   -89.9358 -89.8978 -89.8295 -89.7034 -89.6317 -25.6031  -7.5393  -7.1515
    -6.5600  -1.7880  -1.3384   8.4198   8.7725  10.0672  10.6017  11.1151
    11.7122

          k = 0.5000-0.5000-0.5000 (  1158 PWs)   bands (ev):

   -90.8407 -90.2240 -90.2240 -89.7750 -89.7750 -25.6073  -7.8676  -6.3313
    -6.3313  -2.8672  -0.8749   9.0664   9.0664   9.9960  10.1304  10.8261
    10.8261

     highest occupied level (ev):    11.7122

!    total energy              =    -488.80736596 Ry
     Harris-Foulkes estimate   =    -488.80736597 Ry
     estimated scf accuracy    <          2.7E-09 Ry

     The total energy is the sum of the following terms:

     one-electron contribution =    -248.09542282 Ry
     hartree contribution      =     124.98026330 Ry
     xc contribution           =     -67.41001681 Ry
     ewald contribution        =    -298.38403502 Ry
     Hubbard energy            =       0.10184539 Ry

     convergence has been achieved in  16 iterations

     total cpu time spent up to now is     4041.0 secs

     End of self-consistent calculation
 --- enter write_ns ---
 LDA+U parameters:
U( 1)     =  4.00000000
alpha( 1) =  0.00000000
atom    2   Tr[ns(na)] =   5.63087
    eigenvalues: 
  0.938  0.938  0.938
    eigenvectors:
  0.386  0.227  0.386
  0.540  0.006  0.454
  0.074  0.767  0.159
    occupations:
  0.938 -0.000  0.000
 -0.000  0.938 -0.000
  0.000 -0.000  0.938
atom    3   Tr[ns(na)] =   5.63087
    eigenvalues: 
  0.938  0.938  0.938
    eigenvectors:
  0.330  0.244  0.426
  0.594  0.003  0.403
  0.077  0.752  0.171
    occupations:
  0.938 -0.000  0.000
 -0.000  0.938 -0.000
  0.000 -0.000  0.938
N of occupied +U levels =   11.261743
 --- exit write_ns ---

          k =-0.1667 0.1667 0.1667 (  1149 PWs)   bands (ev):

   -89.9529 -89.9529 -89.9409 -89.5841 -89.5841 -25.5853  -6.6745  -6.1742
    -6.1742  -2.8130  -1.9518   8.2900   8.2900   8.6217  11.0052  11.2619
    11.2619

          k = 0.5000-0.5000 0.8333 (  1144 PWs)   bands (ev):

   -90.0862 -89.8789 -89.8445 -89.5558 -89.5512 -25.6048  -7.6044  -6.7427
    -6.3347  -2.2850  -1.3137   8.7411   9.3502   9.4987  10.3275  10.4746
    11.6871

          k = 0.1667-0.1667 0.5000 (  1137 PWs)   bands (ev):

   -89.8962 -89.6818 -89.6526 -89.3137 -89.1620 -25.6029  -7.3085  -6.4478
    -6.3793  -2.2997  -1.7144   8.7590   8.8100   9.3213   9.8626  11.4788
    11.4855

          k =-0.1667-1.1667 0.1667 (  1139 PWs)   bands (ev):

   -89.8508 -89.7672 -89.6721 -89.5062 -89.4698 -25.6069  -7.6755  -6.8644
    -6.5825  -2.2842  -0.9506   7.6158   9.5085   9.6577  11.2340  11.2828
    11.6179

          k =-0.5000-0.8333-0.1667 (  1144 PWs)   bands (ev):

   -89.9358 -89.8978 -89.8295 -89.7034 -89.6317 -25.6031  -7.5393  -7.1515
    -6.5600  -1.7880  -1.3384   8.4198   8.7725  10.0672  10.6017  11.1151
    11.7122

          k = 0.5000-0.5000-0.5000 (  1158 PWs)   bands (ev):

   -90.8407 -90.2240 -90.2240 -89.7750 -89.7750 -25.6073  -7.8676  -6.3313
    -6.3313  -2.8672  -0.8749   9.0664   9.0664   9.9960  10.1304  10.8261
    10.8261

     highest occupied level (ev):    11.7122

!    total energy              =    -488.80736596 Ry
     Harris-Foulkes estimate   =    -488.80736597 Ry
     estimated scf accuracy    <          2.7E-09 Ry

     The total energy is the sum of the following terms:

     one-electron contribution =    -248.09542282 Ry
     hartree contribution      =     124.98026330 Ry
     xc contribution           =     -67.41001681 Ry
     ewald contribution        =    -298.38403502 Ry
     Hubbard energy            =       0.10184539 Ry

     convergence has been achieved in  16 iterations

     total cpu time spent up to now is     4044.0 secs

     End of self-consistent calculation
 --- enter write_ns ---
 LDA+U parameters:
U( 1)     =  4.00000000
alpha( 1) =  0.00000000
atom    2   Tr[ns(na)] =   5.63087
    eigenvalues: 
  0.938  0.938  0.938
    eigenvectors:
  0.386  0.227  0.386
  0.540  0.006  0.454
  0.074  0.767  0.159
    occupations:
  0.938 -0.000  0.000
 -0.000  0.938 -0.000
  0.000 -0.000  0.938
atom    3   Tr[ns(na)] =   5.63087
    eigenvalues: 
  0.938  0.938  0.938
    eigenvectors:
  0.330  0.244  0.426
  0.594  0.003  0.403
  0.077  0.752  0.171
    occupations:
  0.938 -0.000  0.000
 -0.000  0.938 -0.000
  0.000 -0.000  0.938
N of occupied +U levels =   11.261743
 --- exit write_ns ---

          k =-0.1667 0.1667 0.1667 (  1149 PWs)   bands (ev):

   -89.9529 -89.9529 -89.9409 -89.5841 -89.5841 -25.5853  -6.6745  -6.1742
    -6.1742  -2.8130  -1.9518   8.2900   8.2900   8.6217  11.0052  11.2619
    11.2619

          k = 0.5000-0.5000 0.8333 (  1144 PWs)   bands (ev):

   -90.0862 -89.8789 -89.8445 -89.5558 -89.5512 -25.6048  -7.6044  -6.7427
    -6.3347  -2.2850  -1.3137   8.7411   9.3502   9.4987  10.3275  10.4746
    11.6871

          k = 0.1667-0.1667 0.5000 (  1137 PWs)   bands (ev):

   -89.8962 -89.6818 -89.6526 -89.3137 -89.1620 -25.6029  -7.3085  -6.4478
    -6.3793  -2.2997  -1.7144   8.7590   8.8100   9.3213   9.8626  11.4788
    11.4855

          k =-0.1667-1.1667 0.1667 (  1139 PWs)   bands (ev):

   -89.8508 -89.7672 -89.6721 -89.5062 -89.4698 -25.6069  -7.6755  -6.8644
    -6.5825  -2.2842  -0.9506   7.6158   9.5085   9.6577  11.2340  11.2828
    11.6179

          k =-0.5000-0.8333-0.1667 (  1144 PWs)   bands (ev):

   -89.9358 -89.8978 -89.8295 -89.7034 -89.6317 -25.6031  -7.5393  -7.1515
    -6.5600  -1.7880  -1.3384   8.4198   8.7725  10.0672  10.6017  11.1151
    11.7122

          k = 0.5000-0.5000-0.5000 (  1158 PWs)   bands (ev):

   -90.8407 -90.2240 -90.2240 -89.7750 -89.7750 -25.6073  -7.8676  -6.3313
    -6.3313  -2.8672  -0.8749   9.0664   9.0664   9.9960  10.1304  10.8261
    10.8261

     highest occupied level (ev):    11.7122

!    total energy              =    -488.80736596 Ry
     Harris-Foulkes estimate   =    -488.80736597 Ry
     estimated scf accuracy    <          2.7E-09 Ry

     The total energy is the sum of the following terms:

     one-electron contribution =    -248.09542282 Ry
     hartree contribution      =     124.98026330 Ry
     xc contribution           =     -67.41001681 Ry
     ewald contribution        =    -298.38403502 Ry
     Hubbard energy            =       0.10184539 Ry

     convergence has been achieved in  16 iterations

     Forces acting on atoms (cartesian axes, Ry/au):

     atom    1 type  2   force =    -0.00000000   -0.00000000    0.00000000
     atom    2 type  1   force =     0.00000000    0.00000000   -0.00000000
     atom    3 type  1   force =    -0.00000000   -0.00000000    0.00000000

     Total force =     0.000000     Total SCF correction =     0.000000


     Computing stress (Cartesian axis) and pressure


     Forces acting on atoms (cartesian axes, Ry/au):

     atom    1 type  2   force =    -0.00000000   -0.00000000    0.00000000
     atom    2 type  1   force =     0.00000000    0.00000000   -0.00000000
     atom    3 type  1   force =    -0.00000000   -0.00000000    0.00000000

     Total force =     0.000000     Total SCF correction =     0.000000


     Computing stress (Cartesian axis) and pressure


     Forces acting on atoms (cartesian axes, Ry/au):

     atom    1 type  2   force =    -0.00000000   -0.00000000    0.00000000
     atom    2 type  1   force =     0.00000000    0.00000000   -0.00000000
     atom    3 type  1   force =    -0.00000000   -0.00000000    0.00000000

     Total force =     0.000000     Total SCF correction =     0.000000


     Computing stress (Cartesian axis) and pressure


     Forces acting on atoms (cartesian axes, Ry/au):

     atom    1 type  2   force =    -0.00000000   -0.00000000    0.00000000
     atom    2 type  1   force =     0.00000000    0.00000000   -0.00000000
     atom    3 type  1   force =    -0.00000000   -0.00000000    0.00000000

     Total force =     0.000000     Total SCF correction =     0.000000


     Computing stress (Cartesian axis) and pressure

          total   stress  (Ry/bohr**3)                   (kbar)     P=********
  -0.08588668  -0.00000000  -0.00000000     -12634.36     -0.00     -0.00
  -0.00000000  -0.08588668   0.00000000         -0.00 -12634.36      0.00
  -0.00000000   0.00000000  -0.08588668         -0.00      0.00 -12634.36


     Writing output data file cerium.save

     init_run     :     95.79s CPU    203.35s WALL (       1 calls)
     electrons    :   1756.41s CPU   3798.11s WALL (       1 calls)
     forces       :     64.18s CPU    140.38s WALL (       1 calls)
     stress       :    483.85s CPU   1036.54s WALL (       1 calls)

     Called by init_run:
     wfcinit      :     17.36s CPU     36.81s WALL (       1 calls)
     potinit      :      0.16s CPU      0.47s WALL (       1 calls)

     Called by electrons:
     c_bands      :    281.20s CPU    615.33s WALL (      16 calls)
     sum_band     :    881.12s CPU   1898.53s WALL (      16 calls)
     v_of_rho     :      1.98s CPU      6.18s WALL (      17 calls)
     newd         :    628.63s CPU   1354.49s WALL (      17 calls)
     mix_rho      :      0.12s CPU      0.77s WALL (      16 calls)

     Called by c_bands:
     init_us_2    :     91.74s CPU    192.43s WALL (     276 calls)
     cegterg      :    246.86s CPU    540.82s WALL (      96 calls)

     Called by sum_band:
     sum_band:bec :      6.25s CPU     13.16s WALL (      96 calls)
     addusdens    :    801.77s CPU   1731.76s WALL (      16 calls)

     Called by *egterg:
     h_psi        :    247.04s CPU    519.85s WALL (     464 calls)
     s_psi        :      2.60s CPU     11.44s WALL (     530 calls)
     g_psi        :      0.11s CPU      0.60s WALL (     362 calls)
     cdiaghg      :      1.45s CPU      5.96s WALL (     458 calls)

     Called by h_psi:
     h_psi:pot    :    246.46s CPU    517.36s WALL (     464 calls)
     h_psi:calbec :      3.74s CPU      7.38s WALL (     464 calls)
     vloc_psi     :    239.63s CPU    500.95s WALL (     464 calls)
     add_vuspsi   :      3.08s CPU      9.02s WALL (     464 calls)
     vhpsi        :      0.47s CPU      2.05s WALL (     464 calls)

     General routines
     calbec       :      8.16s CPU     19.07s WALL (    1978 calls)
     fft          :      0.68s CPU      2.50s WALL (     245 calls)
     fftw         :     19.05s CPU     26.34s WALL (   11478 calls)
     davcio       :      0.00s CPU      0.06s WALL (      12 calls)


     Hubbard U routines
     new_ns       :      0.10s CPU      0.41s WALL (      16 calls)
     vhpsi        :      0.47s CPU      2.05s WALL (     464 calls)
     force_hub    :      4.47s CPU      9.11s WALL (       1 calls)
     stres_hub    :    299.56s CPU    644.75s WALL (       1 calls)

     PWSCF        :     0h40m CPU        1h26m WALL


   This run was terminated on:   0:24:29  15May2018            

=------------------------------------------------------------------------------=
   JOB DONE.
=------------------------------------------------------------------------------=
          total   stress  (Ry/bohr**3)                   (kbar)     P=********
  -0.08588668  -0.00000000  -0.00000000     -12634.36     -0.00     -0.00
  -0.00000000  -0.08588668   0.00000000         -0.00 -12634.36      0.00
  -0.00000000   0.00000000  -0.08588668         -0.00      0.00 -12634.36


     Writing output data file cerium.save
          total   stress  (Ry/bohr**3)                   (kbar)     P=********
  -0.08588668  -0.00000000  -0.00000000     -12634.36     -0.00     -0.00
  -0.00000000  -0.08588668   0.00000000         -0.00 -12634.36      0.00
  -0.00000000   0.00000000  -0.08588668         -0.00      0.00 -12634.36


     Writing output data file cerium.save

     init_run     :     96.02s CPU    201.94s WALL (       1 calls)
     electrons    :   1760.81s CPU   3806.38s WALL (       1 calls)
     forces       :     64.51s CPU    140.81s WALL (       1 calls)
     stress       :    486.23s CPU   1038.16s WALL (       1 calls)

     Called by init_run:
     wfcinit      :     17.43s CPU     36.00s WALL (       1 calls)
     potinit      :      0.15s CPU      0.17s WALL (       1 calls)

     Called by electrons:
     c_bands      :    281.81s CPU    616.32s WALL (      16 calls)
     sum_band     :    882.98s CPU   1898.65s WALL (      16 calls)
     v_of_rho     :      1.92s CPU      6.15s WALL (      17 calls)
     newd         :    631.12s CPU   1359.95s WALL (      17 calls)
     mix_rho      :      0.12s CPU      0.85s WALL (      16 calls)

     Called by c_bands:
     init_us_2    :     92.41s CPU    190.73s WALL (     276 calls)
     cegterg      :    247.22s CPU    541.96s WALL (      96 calls)

     Called by sum_band:
     sum_band:bec :      6.12s CPU     12.81s WALL (      96 calls)
     addusdens    :    803.54s CPU   1733.80s WALL (      16 calls)

     Called by *egterg:
     h_psi        :    247.24s CPU    519.93s WALL (     464 calls)
     s_psi        :      2.77s CPU     11.58s WALL (     530 calls)
     g_psi        :      0.14s CPU      0.62s WALL (     362 calls)
     cdiaghg      :      1.48s CPU      5.48s WALL (     458 calls)

     Called by h_psi:
     h_psi:pot    :    246.51s CPU    517.49s WALL (     464 calls)
     h_psi:calbec :      3.45s CPU      7.23s WALL (     464 calls)
     vloc_psi     :    239.85s CPU    501.26s WALL (     464 calls)
     add_vuspsi   :      3.21s CPU      9.00s WALL (     464 calls)
     vhpsi        :      0.62s CPU      2.09s WALL (     464 calls)

     General routines
     calbec       :      7.93s CPU     19.10s WALL (    1978 calls)
     fft          :      0.62s CPU      2.42s WALL (     245 calls)
     fftw         :     18.80s CPU     25.07s WALL (   11478 calls)
     davcio       :      0.00s CPU      0.00s WALL (      12 calls)


     Hubbard U routines
     new_ns       :      0.08s CPU      0.39s WALL (      16 calls)
     vhpsi        :      0.62s CPU      2.09s WALL (     464 calls)
     force_hub    :      4.47s CPU      8.76s WALL (       1 calls)
     stres_hub    :    300.26s CPU    645.75s WALL (       1 calls)

     PWSCF        :     0h40m CPU        1h27m WALL


   This run was terminated on:   0:24:33  15May2018            

=------------------------------------------------------------------------------=
   JOB DONE.
=------------------------------------------------------------------------------=

     init_run     :     96.34s CPU    202.73s WALL (       1 calls)
     electrons    :   1757.70s CPU   3797.17s WALL (       1 calls)
     forces       :     64.66s CPU    141.42s WALL (       1 calls)
     stress       :    486.44s CPU   1042.34s WALL (       1 calls)

     Called by init_run:
     wfcinit      :     17.32s CPU     36.81s WALL (       1 calls)
     potinit      :      0.14s CPU      0.38s WALL (       1 calls)

     Called by electrons:
     c_bands      :    281.63s CPU    615.01s WALL (      16 calls)
     sum_band     :    881.66s CPU   1896.31s WALL (      16 calls)
     v_of_rho     :      1.97s CPU      5.93s WALL (      17 calls)
     newd         :    629.69s CPU   1357.19s WALL (      17 calls)
     mix_rho      :      0.12s CPU      0.86s WALL (      16 calls)

     Called by c_bands:
     init_us_2    :     92.12s CPU    192.25s WALL (     276 calls)
     cegterg      :    247.08s CPU    541.71s WALL (      96 calls)

     Called by sum_band:
     sum_band:bec :      6.23s CPU     13.33s WALL (      96 calls)
     addusdens    :    803.11s CPU   1730.97s WALL (      16 calls)

     Called by *egterg:
     h_psi        :    247.26s CPU    520.81s WALL (     464 calls)
     s_psi        :      2.69s CPU     11.96s WALL (     530 calls)
     g_psi        :      0.13s CPU      0.58s WALL (     362 calls)
     cdiaghg      :      1.41s CPU      5.65s WALL (     458 calls)

     Called by h_psi:
     h_psi:pot    :    246.62s CPU    518.46s WALL (     464 calls)
     h_psi:calbec :      3.68s CPU      7.33s WALL (     464 calls)
     vloc_psi     :    239.90s CPU    502.08s WALL (     464 calls)
     add_vuspsi   :      3.03s CPU      8.98s WALL (     464 calls)
     vhpsi        :      0.59s CPU      1.99s WALL (     464 calls)

     General routines
     calbec       :      8.20s CPU     19.29s WALL (    1978 calls)
     fft          :      0.68s CPU      2.42s WALL (     245 calls)
     fftw         :     18.68s CPU     26.34s WALL (   11478 calls)
     davcio       :      0.00s CPU      0.00s WALL (      12 calls)


     Hubbard U routines
     new_ns       :      0.08s CPU      0.38s WALL (      16 calls)
     vhpsi        :      0.59s CPU      1.99s WALL (     464 calls)
     force_hub    :      4.53s CPU      9.02s WALL (       1 calls)
     stres_hub    :    301.50s CPU    648.84s WALL (       1 calls)

     PWSCF        :     0h40m CPU        1h27m WALL


   This run was terminated on:   0:24:33  15May2018            

=------------------------------------------------------------------------------=
   JOB DONE.
=------------------------------------------------------------------------------=
          total   stress  (Ry/bohr**3)                   (kbar)     P=********
  -0.08588668  -0.00000000  -0.00000000     -12634.36     -0.00     -0.00
  -0.00000000  -0.08588668   0.00000000         -0.00 -12634.36      0.00
  -0.00000000   0.00000000  -0.08588668         -0.00      0.00 -12634.36


     Writing output data file cerium.save

     init_run     :     94.84s CPU    200.50s WALL (       1 calls)
     electrons    :   1760.76s CPU   3807.25s WALL (       1 calls)
     forces       :     64.11s CPU    139.68s WALL (       1 calls)
     stress       :    484.68s CPU   1037.61s WALL (       1 calls)

     Called by init_run:
     wfcinit      :     17.41s CPU     36.94s WALL (       1 calls)
     potinit      :      0.15s CPU      0.36s WALL (       1 calls)

     Called by electrons:
     c_bands      :    282.38s CPU    615.89s WALL (      16 calls)
     sum_band     :    881.96s CPU   1904.42s WALL (      16 calls)
     v_of_rho     :      1.89s CPU      5.87s WALL (      17 calls)
     newd         :    630.75s CPU   1356.31s WALL (      17 calls)
     mix_rho      :      0.12s CPU      0.87s WALL (      16 calls)

     Called by c_bands:
     init_us_2    :     91.66s CPU    192.23s WALL (     276 calls)
     cegterg      :    248.01s CPU    542.70s WALL (      96 calls)

     Called by sum_band:
     sum_band:bec :      6.22s CPU     13.32s WALL (      96 calls)
     addusdens    :    803.73s CPU   1739.17s WALL (      16 calls)

     Called by *egterg:
     h_psi        :    248.22s CPU    520.34s WALL (     464 calls)
     s_psi        :      2.72s CPU     12.31s WALL (     530 calls)
     g_psi        :      0.09s CPU      0.71s WALL (     362 calls)
     cdiaghg      :      1.52s CPU      5.95s WALL (     458 calls)

     Called by h_psi:
     h_psi:pot    :    247.60s CPU    517.86s WALL (     464 calls)
     h_psi:calbec :      3.52s CPU      7.55s WALL (     464 calls)
     vloc_psi     :    241.04s CPU    501.05s WALL (     464 calls)
     add_vuspsi   :      3.03s CPU      9.25s WALL (     464 calls)
     vhpsi        :      0.54s CPU      2.09s WALL (     464 calls)

     General routines
     calbec       :      8.10s CPU     20.17s WALL (    1978 calls)
     fft          :      0.63s CPU      2.46s WALL (     245 calls)
     fftw         :     18.97s CPU     26.01s WALL (   11478 calls)
     davcio       :      0.00s CPU      0.00s WALL (      12 calls)


     Hubbard U routines
     new_ns       :      0.09s CPU      0.45s WALL (      16 calls)
     vhpsi        :      0.54s CPU      2.09s WALL (     464 calls)
     force_hub    :      4.56s CPU      9.04s WALL (       1 calls)
     stres_hub    :    301.01s CPU    644.94s WALL (       1 calls)

     PWSCF        :     0h40m CPU        1h27m WALL


   This run was terminated on:   0:24:34  15May2018            

=------------------------------------------------------------------------------=
   JOB DONE.
=------------------------------------------------------------------------------=
