

     Program PWSCF v.6.1 (svn rev. 13369) starts on 14May2018 at 21:19:28 

     This program is part of the open-source Quantum ESPRESSO suite
     for quantum simulation of materials; please cite
         "P. Giannozzi et al., J. Phys.:Condens. Matter 21 395502 (2009);
          URL http://www.quantum-espresso.org", 
     in publications or presentations arising from this work. More details at
     http://www.quantum-espresso.org/quote

     Serial multi-threaded version, running on    4 processor cores
     Reading input from ceo2.scf.david20.in
     Message from routine read_cards :
     DEPRECATED: no units specified in ATOMIC_POSITIONS card
     Message from routine read_cards :
     ATOMIC_POSITIONS: units set to alat

     Current dimensions of program PWSCF are:
     Max number of different atomic species (ntypx) = 10
     Max number of k-points (npk) =  40000
     Max angular momentum in pseudopotentials (lmaxx) =  3

     Program PWSCF v.6.1 (svn rev. 13369) starts on 14May2018 at 21:19:28 

     This program is part of the open-source Quantum ESPRESSO suite
     for quantum simulation of materials; please cite
         "P. Giannozzi et al., J. Phys.:Condens. Matter 21 395502 (2009);
          URL http://www.quantum-espresso.org", 
     in publications or presentations arising from this work. More details at
     http://www.quantum-espresso.org/quote

     Serial multi-threaded version, running on    4 processor cores
     Reading input from ceo2.scf.david20.in
     Message from routine read_cards :
     DEPRECATED: no units specified in ATOMIC_POSITIONS card
     Message from routine read_cards :
     ATOMIC_POSITIONS: units set to alat

     Current dimensions of program PWSCF are:
     Max number of different atomic species (ntypx) = 10
     Max number of k-points (npk) =  40000
     Max angular momentum in pseudopotentials (lmaxx) =  3

     Program PWSCF v.6.1 (svn rev. 13369) starts on 14May2018 at 21:19:28 

     This program is part of the open-source Quantum ESPRESSO suite
     for quantum simulation of materials; please cite
         "P. Giannozzi et al., J. Phys.:Condens. Matter 21 395502 (2009);
          URL http://www.quantum-espresso.org", 
     in publications or presentations arising from this work. More details at
     http://www.quantum-espresso.org/quote

     Serial multi-threaded version, running on    4 processor cores
     Reading input from ceo2.scf.david20.in
     Message from routine read_cards :
     DEPRECATED: no units specified in ATOMIC_POSITIONS card
     Message from routine read_cards :
     ATOMIC_POSITIONS: units set to alat

     Current dimensions of program PWSCF are:
     Max number of different atomic species (ntypx) = 10
     Max number of k-points (npk) =  40000
     Max angular momentum in pseudopotentials (lmaxx) =  3
     Program PWSCF v.6.1 (svn rev. 13369) starts on 14May2018 at 21:19:28 

     This program is part of the open-source Quantum ESPRESSO suite
     for quantum simulation of materials; please cite
         "P. Giannozzi et al., J. Phys.:Condens. Matter 21 395502 (2009);
          URL http://www.quantum-espresso.org", 
     in publications or presentations arising from this work. More details at
     http://www.quantum-espresso.org/quote

     Serial multi-threaded version, running on    4 processor cores
     Reading input from ceo2.scf.david20.in
     Message from routine read_cards :
     DEPRECATED: no units specified in ATOMIC_POSITIONS card
     Message from routine read_cards :
     ATOMIC_POSITIONS: units set to alat

     Current dimensions of program PWSCF are:
     Max number of different atomic species (ntypx) = 10
     Max number of k-points (npk) =  40000
     Max angular momentum in pseudopotentials (lmaxx) =  3
               file O.pbe-nl-rrkjus_psl.1.0.0.UPF: wavefunction(s)  2S renormalized
               file O.pbe-nl-rrkjus_psl.1.0.0.UPF: wavefunction(s)  2S renormalized
               file O.pbe-nl-rrkjus_psl.1.0.0.UPF: wavefunction(s)  2S renormalized
               file O.pbe-nl-rrkjus_psl.1.0.0.UPF: wavefunction(s)  2S renormalized
               file Ce.pbe-spdfn-rrkjus_psl.1.0.0.UPF: wavefunction(s)  4F renormalized
               file Ce.pbe-spdfn-rrkjus_psl.1.0.0.UPF: wavefunction(s)  4F renormalized
               file Ce.pbe-spdfn-rrkjus_psl.1.0.0.UPF: wavefunction(s)  4F renormalized
               file Ce.pbe-spdfn-rrkjus_psl.1.0.0.UPF: wavefunction(s)  4F renormalized

     G-vector sticks info
     --------------------
     sticks:   dense  smooth     PW     G-vecs:    dense   smooth      PW
     Sum         295     295     91                 3215     3215     609



     bravais-lattice index     =            2
     lattice parameter (alat)  =      10.2253  a.u.
     unit-cell volume          =     267.2811 (a.u.)^3
     number of atoms/cell      =            3
     number of atomic types    =            2
     number of electrons       =        34.00
     number of Kohn-Sham states=           17
     kinetic-energy cutoff     =      20.0000  Ry
     charge density cutoff     =      80.0000  Ry
     convergence threshold     =      1.0E-08
     mixing beta               =       0.7000
     number of iterations used =            8  plain     mixing
     Exchange-correlation      = PBE ( 1  4  3  4 0 0)

     celldm(1)=  10.225300  celldm(2)=   0.000000  celldm(3)=   0.000000
     celldm(4)=   0.000000  celldm(5)=   0.000000  celldm(6)=   0.000000

     crystal axes: (cart. coord. in units of alat)
               a(1) = (  -0.500000   0.000000   0.500000 )  
               a(2) = (   0.000000   0.500000   0.500000 )  
               a(3) = (  -0.500000   0.500000   0.000000 )  

     reciprocal axes: (cart. coord. in units 2 pi/alat)
               b(1) = ( -1.000000 -1.000000  1.000000 )  
               b(2) = (  1.000000  1.000000  1.000000 )  
               b(3) = ( -1.000000  1.000000 -1.000000 )  


     PseudoPot. # 1 for  O read from file:
     /home/dmitry/qe/qe-6.1/pseudo/O.pbe-nl-rrkjus_psl.1.0.0.UPF
     MD5 check sum: 41aa6daaf7b486e514118ed2fcffca44
     Pseudo is Ultrasoft + core correction, Zval =  6.0
     Generated using "atomic" code by A. Dal Corso  v.6.1 svn rev. 13369
     Using radial grid of 1095 points,  4 beta functions with: 
                l(1) =   0
                l(2) =   0
                l(3) =   1
                l(4) =   1
     Q(r) pseudized with 0 coefficients 


     PseudoPot. # 2 for Ce read from file:
     /home/dmitry/qe/qe-6.1/pseudo/Ce.pbe-spdfn-rrkjus_psl.1.0.0.UPF
     MD5 check sum: 584ada09c8d63c147a4eb0bd2f8e9a4c
     Pseudo is Ultrasoft + core correction, Zval = 22.0
     Generated using "atomic" code by A. Dal Corso  v.6.1 svn rev. 13369
     Using radial grid of 1255 points,  8 beta functions with: 
                l(1) =   0
                l(2) =   0
                l(3) =   1
                l(4) =   1
                l(5) =   2
                l(6) =   2
                l(7) =   3
                l(8) =   3
     Q(r) pseudized with 0 coefficients 


     atomic species   valence    mass     pseudopotential
        O              6.00    15.99900      O( 1.00)
        Ce            22.00   140.12000     Ce( 1.00)


     Simplified LDA+U calculation (l_max = 1) with parameters (eV):
     atomic species    L          U    alpha       J0     beta
        O              1     4.0000   0.0000   0.0000   0.0000



     48 Sym. Ops., with inversion, found



   Cartesian axes

     site n.     atom                  positions (alat units)
         1           Ce  tau(   1) = (   0.0000000   0.0000000   0.0000000  )
         2           O   tau(   2) = (   0.2500000   0.2500000   0.2500000  )
         3           O   tau(   3) = (   0.7500000   0.7500000   0.7500000  )

     number of k points=     6
                       cart. coord. in units 2pi/alat
        k(    1) = (  -0.1666667   0.1666667   0.1666667), wk =   0.1481481
        k(    2) = (   0.5000000  -0.5000000   0.8333333), wk =   0.4444444
        k(    3) = (   0.1666667  -0.1666667   0.5000000), wk =   0.4444444
        k(    4) = (  -0.1666667  -1.1666667   0.1666667), wk =   0.4444444
        k(    5) = (  -0.5000000  -0.8333333  -0.1666667), wk =   0.4444444
        k(    6) = (   0.5000000  -0.5000000  -0.5000000), wk =   0.0740741

     Dense  grid:     3215 G-vectors     FFT dimensions: (  24,  24,  24)

     Estimated max dynamical RAM per process >       4.34MB

     G-vector sticks info
     --------------------
     sticks:   dense  smooth     PW     G-vecs:    dense   smooth      PW
     Sum         295     295     91                 3215     3215     609



     bravais-lattice index     =            2
     lattice parameter (alat)  =      10.2253  a.u.
     unit-cell volume          =     267.2811 (a.u.)^3
     number of atoms/cell      =            3
     number of atomic types    =            2
     number of electrons       =        34.00
     number of Kohn-Sham states=           17
     kinetic-energy cutoff     =      20.0000  Ry
     charge density cutoff     =      80.0000  Ry
     convergence threshold     =      1.0E-08
     mixing beta               =       0.7000
     number of iterations used =            8  plain     mixing
     Exchange-correlation      = PBE ( 1  4  3  4 0 0)

     celldm(1)=  10.225300  celldm(2)=   0.000000  celldm(3)=   0.000000
     celldm(4)=   0.000000  celldm(5)=   0.000000  celldm(6)=   0.000000

     crystal axes: (cart. coord. in units of alat)
               a(1) = (  -0.500000   0.000000   0.500000 )  
               a(2) = (   0.000000   0.500000   0.500000 )  
               a(3) = (  -0.500000   0.500000   0.000000 )  

     reciprocal axes: (cart. coord. in units 2 pi/alat)
               b(1) = ( -1.000000 -1.000000  1.000000 )  
               b(2) = (  1.000000  1.000000  1.000000 )  
               b(3) = ( -1.000000  1.000000 -1.000000 )  


     PseudoPot. # 1 for  O read from file:
     /home/dmitry/qe/qe-6.1/pseudo/O.pbe-nl-rrkjus_psl.1.0.0.UPF
     MD5 check sum: 41aa6daaf7b486e514118ed2fcffca44
     Pseudo is Ultrasoft + core correction, Zval =  6.0
     Generated using "atomic" code by A. Dal Corso  v.6.1 svn rev. 13369
     Using radial grid of 1095 points,  4 beta functions with: 
                l(1) =   0
                l(2) =   0
                l(3) =   1
                l(4) =   1
     Q(r) pseudized with 0 coefficients 


     PseudoPot. # 2 for Ce read from file:
     /home/dmitry/qe/qe-6.1/pseudo/Ce.pbe-spdfn-rrkjus_psl.1.0.0.UPF
     MD5 check sum: 584ada09c8d63c147a4eb0bd2f8e9a4c
     Pseudo is Ultrasoft + core correction, Zval = 22.0
     Generated using "atomic" code by A. Dal Corso  v.6.1 svn rev. 13369
     Using radial grid of 1255 points,  8 beta functions with: 
                l(1) =   0
                l(2) =   0
                l(3) =   1
                l(4) =   1
                l(5) =   2
                l(6) =   2
                l(7) =   3
                l(8) =   3
     Q(r) pseudized with 0 coefficients 


     atomic species   valence    mass     pseudopotential
        O              6.00    15.99900      O( 1.00)
        Ce            22.00   140.12000     Ce( 1.00)


     Simplified LDA+U calculation (l_max = 1) with parameters (eV):
     atomic species    L          U    alpha       J0     beta
        O              1     4.0000   0.0000   0.0000   0.0000



     48 Sym. Ops., with inversion, found



   Cartesian axes

     site n.     atom                  positions (alat units)
         1           Ce  tau(   1) = (   0.0000000   0.0000000   0.0000000  )
         2           O   tau(   2) = (   0.2500000   0.2500000   0.2500000  )
         3           O   tau(   3) = (   0.7500000   0.7500000   0.7500000  )

     number of k points=     6
                       cart. coord. in units 2pi/alat
        k(    1) = (  -0.1666667   0.1666667   0.1666667), wk =   0.1481481
        k(    2) = (   0.5000000  -0.5000000   0.8333333), wk =   0.4444444
        k(    3) = (   0.1666667  -0.1666667   0.5000000), wk =   0.4444444
        k(    4) = (  -0.1666667  -1.1666667   0.1666667), wk =   0.4444444
        k(    5) = (  -0.5000000  -0.8333333  -0.1666667), wk =   0.4444444
        k(    6) = (   0.5000000  -0.5000000  -0.5000000), wk =   0.0740741

     Dense  grid:     3215 G-vectors     FFT dimensions: (  24,  24,  24)

     Estimated max dynamical RAM per process >       4.34MB

     G-vector sticks info
     --------------------
     sticks:   dense  smooth     PW     G-vecs:    dense   smooth      PW
     Sum         295     295     91                 3215     3215     609



     bravais-lattice index     =            2
     lattice parameter (alat)  =      10.2253  a.u.
     unit-cell volume          =     267.2811 (a.u.)^3
     number of atoms/cell      =            3
     number of atomic types    =            2
     number of electrons       =        34.00
     number of Kohn-Sham states=           17
     kinetic-energy cutoff     =      20.0000  Ry
     charge density cutoff     =      80.0000  Ry
     convergence threshold     =      1.0E-08
     mixing beta               =       0.7000
     number of iterations used =            8  plain     mixing
     Exchange-correlation      = PBE ( 1  4  3  4 0 0)

     celldm(1)=  10.225300  celldm(2)=   0.000000  celldm(3)=   0.000000
     celldm(4)=   0.000000  celldm(5)=   0.000000  celldm(6)=   0.000000

     crystal axes: (cart. coord. in units of alat)
               a(1) = (  -0.500000   0.000000   0.500000 )  
               a(2) = (   0.000000   0.500000   0.500000 )  
               a(3) = (  -0.500000   0.500000   0.000000 )  

     reciprocal axes: (cart. coord. in units 2 pi/alat)
               b(1) = ( -1.000000 -1.000000  1.000000 )  
               b(2) = (  1.000000  1.000000  1.000000 )  
               b(3) = ( -1.000000  1.000000 -1.000000 )  


     PseudoPot. # 1 for  O read from file:
     /home/dmitry/qe/qe-6.1/pseudo/O.pbe-nl-rrkjus_psl.1.0.0.UPF
     MD5 check sum: 41aa6daaf7b486e514118ed2fcffca44
     Pseudo is Ultrasoft + core correction, Zval =  6.0
     Generated using "atomic" code by A. Dal Corso  v.6.1 svn rev. 13369
     Using radial grid of 1095 points,  4 beta functions with: 
                l(1) =   0
                l(2) =   0
                l(3) =   1
                l(4) =   1
     Q(r) pseudized with 0 coefficients 


     PseudoPot. # 2 for Ce read from file:
     /home/dmitry/qe/qe-6.1/pseudo/Ce.pbe-spdfn-rrkjus_psl.1.0.0.UPF
     MD5 check sum: 584ada09c8d63c147a4eb0bd2f8e9a4c
     Pseudo is Ultrasoft + core correction, Zval = 22.0
     Generated using "atomic" code by A. Dal Corso  v.6.1 svn rev. 13369
     Using radial grid of 1255 points,  8 beta functions with: 
                l(1) =   0
                l(2) =   0
                l(3) =   1
                l(4) =   1
                l(5) =   2
                l(6) =   2
                l(7) =   3
                l(8) =   3
     Q(r) pseudized with 0 coefficients 


     atomic species   valence    mass     pseudopotential
        O              6.00    15.99900      O( 1.00)
        Ce            22.00   140.12000     Ce( 1.00)


     Simplified LDA+U calculation (l_max = 1) with parameters (eV):
     atomic species    L          U    alpha       J0     beta
        O              1     4.0000   0.0000   0.0000   0.0000



     48 Sym. Ops., with inversion, found



   Cartesian axes

     site n.     atom                  positions (alat units)
         1           Ce  tau(   1) = (   0.0000000   0.0000000   0.0000000  )
         2           O   tau(   2) = (   0.2500000   0.2500000   0.2500000  )
         3           O   tau(   3) = (   0.7500000   0.7500000   0.7500000  )

     number of k points=     6
                       cart. coord. in units 2pi/alat
        k(    1) = (  -0.1666667   0.1666667   0.1666667), wk =   0.1481481
        k(    2) = (   0.5000000  -0.5000000   0.8333333), wk =   0.4444444
        k(    3) = (   0.1666667  -0.1666667   0.5000000), wk =   0.4444444
        k(    4) = (  -0.1666667  -1.1666667   0.1666667), wk =   0.4444444
        k(    5) = (  -0.5000000  -0.8333333  -0.1666667), wk =   0.4444444
        k(    6) = (   0.5000000  -0.5000000  -0.5000000), wk =   0.0740741

     Dense  grid:     3215 G-vectors     FFT dimensions: (  24,  24,  24)

     Estimated max dynamical RAM per process >       4.34MB

     G-vector sticks info
     --------------------
     sticks:   dense  smooth     PW     G-vecs:    dense   smooth      PW
     Sum         295     295     91                 3215     3215     609



     bravais-lattice index     =            2
     lattice parameter (alat)  =      10.2253  a.u.
     unit-cell volume          =     267.2811 (a.u.)^3
     number of atoms/cell      =            3
     number of atomic types    =            2
     number of electrons       =        34.00
     number of Kohn-Sham states=           17
     kinetic-energy cutoff     =      20.0000  Ry
     charge density cutoff     =      80.0000  Ry
     convergence threshold     =      1.0E-08
     mixing beta               =       0.7000
     number of iterations used =            8  plain     mixing
     Exchange-correlation      = PBE ( 1  4  3  4 0 0)

     celldm(1)=  10.225300  celldm(2)=   0.000000  celldm(3)=   0.000000
     celldm(4)=   0.000000  celldm(5)=   0.000000  celldm(6)=   0.000000

     crystal axes: (cart. coord. in units of alat)
               a(1) = (  -0.500000   0.000000   0.500000 )  
               a(2) = (   0.000000   0.500000   0.500000 )  
               a(3) = (  -0.500000   0.500000   0.000000 )  

     reciprocal axes: (cart. coord. in units 2 pi/alat)
               b(1) = ( -1.000000 -1.000000  1.000000 )  
               b(2) = (  1.000000  1.000000  1.000000 )  
               b(3) = ( -1.000000  1.000000 -1.000000 )  


     PseudoPot. # 1 for  O read from file:
     /home/dmitry/qe/qe-6.1/pseudo/O.pbe-nl-rrkjus_psl.1.0.0.UPF
     MD5 check sum: 41aa6daaf7b486e514118ed2fcffca44
     Pseudo is Ultrasoft + core correction, Zval =  6.0
     Generated using "atomic" code by A. Dal Corso  v.6.1 svn rev. 13369
     Using radial grid of 1095 points,  4 beta functions with: 
                l(1) =   0
                l(2) =   0
                l(3) =   1
                l(4) =   1
     Q(r) pseudized with 0 coefficients 


     PseudoPot. # 2 for Ce read from file:
     /home/dmitry/qe/qe-6.1/pseudo/Ce.pbe-spdfn-rrkjus_psl.1.0.0.UPF
     MD5 check sum: 584ada09c8d63c147a4eb0bd2f8e9a4c
     Pseudo is Ultrasoft + core correction, Zval = 22.0
     Generated using "atomic" code by A. Dal Corso  v.6.1 svn rev. 13369
     Using radial grid of 1255 points,  8 beta functions with: 
                l(1) =   0
                l(2) =   0
                l(3) =   1
                l(4) =   1
                l(5) =   2
                l(6) =   2
                l(7) =   3
                l(8) =   3
     Q(r) pseudized with 0 coefficients 


     atomic species   valence    mass     pseudopotential
        O              6.00    15.99900      O( 1.00)
        Ce            22.00   140.12000     Ce( 1.00)


     Simplified LDA+U calculation (l_max = 1) with parameters (eV):
     atomic species    L          U    alpha       J0     beta
        O              1     4.0000   0.0000   0.0000   0.0000



     48 Sym. Ops., with inversion, found



   Cartesian axes

     site n.     atom                  positions (alat units)
         1           Ce  tau(   1) = (   0.0000000   0.0000000   0.0000000  )
         2           O   tau(   2) = (   0.2500000   0.2500000   0.2500000  )
         3           O   tau(   3) = (   0.7500000   0.7500000   0.7500000  )

     number of k points=     6
                       cart. coord. in units 2pi/alat
        k(    1) = (  -0.1666667   0.1666667   0.1666667), wk =   0.1481481
        k(    2) = (   0.5000000  -0.5000000   0.8333333), wk =   0.4444444
        k(    3) = (   0.1666667  -0.1666667   0.5000000), wk =   0.4444444
        k(    4) = (  -0.1666667  -1.1666667   0.1666667), wk =   0.4444444
        k(    5) = (  -0.5000000  -0.8333333  -0.1666667), wk =   0.4444444
        k(    6) = (   0.5000000  -0.5000000  -0.5000000), wk =   0.0740741

     Dense  grid:     3215 G-vectors     FFT dimensions: (  24,  24,  24)

     Estimated max dynamical RAM per process >       4.34MB

     Check: negative/imaginary core charge=   -0.000794    0.000000

     Initial potential from superposition of free atoms

     starting charge   33.99439, renormalised to   34.00000
     Number of +U iterations with fixed ns =  0
     Starting occupations:
 --- enter write_ns ---
 LDA+U parameters:
U( 1)     =  4.00000000
alpha( 1) =  0.00000000
atom    2   Tr[ns(na)] =   4.00000
    eigenvalues: 
  0.667  0.667  0.667
    eigenvectors:
  1.000  0.000  0.000
  0.000  1.000  0.000
  0.000  0.000  1.000
    occupations:
  0.667  0.000  0.000
  0.000  0.667  0.000
  0.000  0.000  0.667
atom    3   Tr[ns(na)] =   4.00000
    eigenvalues: 
  0.667  0.667  0.667
    eigenvectors:
  1.000  0.000  0.000
  0.000  1.000  0.000
  0.000  0.000  1.000
    occupations:
  0.667  0.000  0.000
  0.000  0.667  0.000
  0.000  0.000  0.667
N of occupied +U levels =    8.000000
 --- exit write_ns ---

     Check: negative/imaginary core charge=   -0.000794    0.000000

     Initial potential from superposition of free atoms

     starting charge   33.99439, renormalised to   34.00000
     Number of +U iterations with fixed ns =  0
     Starting occupations:
 --- enter write_ns ---
 LDA+U parameters:
U( 1)     =  4.00000000
alpha( 1) =  0.00000000
atom    2   Tr[ns(na)] =   4.00000
    eigenvalues: 
  0.667  0.667  0.667
    eigenvectors:
  1.000  0.000  0.000
  0.000  1.000  0.000
  0.000  0.000  1.000
    occupations:
  0.667  0.000  0.000
  0.000  0.667  0.000
  0.000  0.000  0.667
atom    3   Tr[ns(na)] =   4.00000
    eigenvalues: 
  0.667  0.667  0.667
    eigenvectors:
  1.000  0.000  0.000
  0.000  1.000  0.000
  0.000  0.000  1.000
    occupations:
  0.667  0.000  0.000
  0.000  0.667  0.000
  0.000  0.000  0.667
N of occupied +U levels =    8.000000
 --- exit write_ns ---

     Check: negative/imaginary core charge=   -0.000794    0.000000

     Initial potential from superposition of free atoms

     starting charge   33.99439, renormalised to   34.00000
     Number of +U iterations with fixed ns =  0
     Starting occupations:
 --- enter write_ns ---
 LDA+U parameters:
U( 1)     =  4.00000000
alpha( 1) =  0.00000000
atom    2   Tr[ns(na)] =   4.00000
    eigenvalues: 
  0.667  0.667  0.667
    eigenvectors:
  1.000  0.000  0.000
  0.000  1.000  0.000
  0.000  0.000  1.000
    occupations:
  0.667  0.000  0.000
  0.000  0.667  0.000
  0.000  0.000  0.667
atom    3   Tr[ns(na)] =   4.00000
    eigenvalues: 
  0.667  0.667  0.667
    eigenvectors:
  1.000  0.000  0.000
  0.000  1.000  0.000
  0.000  0.000  1.000
    occupations:
  0.667  0.000  0.000
  0.000  0.667  0.000
  0.000  0.000  0.667
N of occupied +U levels =    8.000000
 --- exit write_ns ---

     Check: negative/imaginary core charge=   -0.000794    0.000000

     Initial potential from superposition of free atoms

     starting charge   33.99439, renormalised to   34.00000
     Number of +U iterations with fixed ns =  0
     Starting occupations:
 --- enter write_ns ---
 LDA+U parameters:
U( 1)     =  4.00000000
alpha( 1) =  0.00000000
atom    2   Tr[ns(na)] =   4.00000
    eigenvalues: 
  0.667  0.667  0.667
    eigenvectors:
  1.000  0.000  0.000
  0.000  1.000  0.000
  0.000  0.000  1.000
    occupations:
  0.667  0.000  0.000
  0.000  0.667  0.000
  0.000  0.000  0.667
atom    3   Tr[ns(na)] =   4.00000
    eigenvalues: 
  0.667  0.667  0.667
    eigenvectors:
  1.000  0.000  0.000
  0.000  1.000  0.000
  0.000  0.000  1.000
    occupations:
  0.667  0.000  0.000
  0.000  0.667  0.000
  0.000  0.000  0.667
N of occupied +U levels =    8.000000
 --- exit write_ns ---
 Atomic wfc used for LDA+U Projector are NOT orthogonalized
     Starting wfc are   30 randomized atomic wfcs
 Atomic wfc used for LDA+U Projector are NOT orthogonalized

     total cpu time spent up to now is       83.7 secs

     per-process dynamical memory:    14.9 Mb

     Self-consistent Calculation

     iteration #  1     ecut=    20.00 Ry     beta=0.70
     Davidson diagonalization with overlap
     Starting wfc are   30 randomized atomic wfcs
 Atomic wfc used for LDA+U Projector are NOT orthogonalized
     Starting wfc are   30 randomized atomic wfcs
 Atomic wfc used for LDA+U Projector are NOT orthogonalized

     total cpu time spent up to now is      101.5 secs

     per-process dynamical memory:    14.9 Mb

     Self-consistent Calculation

     iteration #  1     ecut=    20.00 Ry     beta=0.70
     Davidson diagonalization with overlap
     ethr =  1.00E-02,  avg # of iterations =  2.0
     Starting wfc are   30 randomized atomic wfcs

     total cpu time spent up to now is      107.0 secs

     per-process dynamical memory:    14.9 Mb

     Self-consistent Calculation

     iteration #  1     ecut=    20.00 Ry     beta=0.70
     Davidson diagonalization with overlap

     total cpu time spent up to now is      118.5 secs

     per-process dynamical memory:    14.9 Mb

     Self-consistent Calculation

     iteration #  1     ecut=    20.00 Ry     beta=0.70
     Davidson diagonalization with overlap
     ethr =  1.00E-02,  avg # of iterations =  2.0
     ethr =  1.00E-02,  avg # of iterations =  2.0
     ethr =  1.00E-02,  avg # of iterations =  2.0
 --- enter write_ns ---
 LDA+U parameters:
U( 1)     =  4.00000000
alpha( 1) =  0.00000000
atom    2   Tr[ns(na)] =   5.62869
    eigenvalues: 
  0.938  0.938  0.938
    eigenvectors:
  0.473  0.166  0.360
  0.482  0.017  0.502
  0.045  0.817  0.138
    occupations:
  0.938 -0.000  0.000
 -0.000  0.938 -0.000
  0.000 -0.000  0.938
atom    3   Tr[ns(na)] =   5.62869
    eigenvalues: 
  0.938  0.938  0.938
    eigenvectors:
  0.571  0.100  0.329
  0.405  0.022  0.574
  0.024  0.879  0.097
    occupations:
  0.938 -0.000  0.000
 -0.000  0.938 -0.000
  0.000 -0.000  0.938
N of occupied +U levels =   11.257389
 --- exit write_ns ---

     negative rho (up, down):  1.146E-02 0.000E+00
 --- enter write_ns ---
 LDA+U parameters:
U( 1)     =  4.00000000
alpha( 1) =  0.00000000
atom    2   Tr[ns(na)] =   5.62869
    eigenvalues: 
  0.938  0.938  0.938
    eigenvectors:
  0.473  0.166  0.360
  0.482  0.017  0.502
  0.045  0.817  0.138
    occupations:
  0.938 -0.000  0.000
 -0.000  0.938 -0.000
  0.000 -0.000  0.938
atom    3   Tr[ns(na)] =   5.62869
    eigenvalues: 
  0.938  0.938  0.938
    eigenvectors:
  0.571  0.100  0.329
  0.405  0.022  0.574
  0.024  0.879  0.097
    occupations:
  0.938 -0.000  0.000
 -0.000  0.938 -0.000
  0.000 -0.000  0.938
N of occupied +U levels =   11.257389
 --- exit write_ns ---

     negative rho (up, down):  1.146E-02 0.000E+00
 --- enter write_ns ---
 LDA+U parameters:
U( 1)     =  4.00000000
alpha( 1) =  0.00000000
atom    2   Tr[ns(na)] =   5.62869
    eigenvalues: 
  0.938  0.938  0.938
    eigenvectors:
  0.473  0.166  0.360
  0.482  0.017  0.502
  0.045  0.817  0.138
    occupations:
  0.938 -0.000  0.000
 -0.000  0.938 -0.000
  0.000 -0.000  0.938
atom    3   Tr[ns(na)] =   5.62869
    eigenvalues: 
  0.938  0.938  0.938
    eigenvectors:
  0.571  0.100  0.329
  0.405  0.022  0.574
  0.024  0.879  0.097
    occupations:
  0.938 -0.000  0.000
 -0.000  0.938 -0.000
  0.000 -0.000  0.938
N of occupied +U levels =   11.257389
 --- exit write_ns ---

     negative rho (up, down):  1.146E-02 0.000E+00
 --- enter write_ns ---
 LDA+U parameters:
U( 1)     =  4.00000000
alpha( 1) =  0.00000000
atom    2   Tr[ns(na)] =   5.62869
    eigenvalues: 
  0.938  0.938  0.938
    eigenvectors:
  0.473  0.166  0.360
  0.482  0.017  0.502
  0.045  0.817  0.138
    occupations:
  0.938 -0.000  0.000
 -0.000  0.938 -0.000
  0.000 -0.000  0.938
atom    3   Tr[ns(na)] =   5.62869
    eigenvalues: 
  0.938  0.938  0.938
    eigenvectors:
  0.571  0.100  0.329
  0.405  0.022  0.574
  0.024  0.879  0.097
    occupations:
  0.938 -0.000  0.000
 -0.000  0.938 -0.000
  0.000 -0.000  0.938
N of occupied +U levels =   11.257389
 --- exit write_ns ---

     negative rho (up, down):  1.146E-02 0.000E+00

     total cpu time spent up to now is      210.0 secs

     total energy              =    -441.61283063 Ry
     Harris-Foulkes estimate   =    -459.47239092 Ry
     estimated scf accuracy    <      22.69711417 Ry

     iteration #  2     ecut=    20.00 Ry     beta=0.70
     Davidson diagonalization with overlap

     total cpu time spent up to now is      213.3 secs

     total energy              =    -441.61283063 Ry
     Harris-Foulkes estimate   =    -459.47239092 Ry
     estimated scf accuracy    <      22.69711417 Ry

     iteration #  2     ecut=    20.00 Ry     beta=0.70
     Davidson diagonalization with overlap
     ethr =  1.00E-02,  avg # of iterations =  3.0
     ethr =  1.00E-02,  avg # of iterations =  3.0

     total cpu time spent up to now is      237.6 secs

     total energy              =    -441.61283063 Ry
     Harris-Foulkes estimate   =    -459.47239092 Ry
     estimated scf accuracy    <      22.69711417 Ry

     iteration #  2     ecut=    20.00 Ry     beta=0.70
     Davidson diagonalization with overlap

     total cpu time spent up to now is      238.3 secs

     total energy              =    -441.61283063 Ry
     Harris-Foulkes estimate   =    -459.47239092 Ry
     estimated scf accuracy    <      22.69711417 Ry

     iteration #  2     ecut=    20.00 Ry     beta=0.70
     Davidson diagonalization with overlap
     ethr =  1.00E-02,  avg # of iterations =  3.0
     ethr =  1.00E-02,  avg # of iterations =  3.0

     negative rho (up, down):  1.172E-03 0.000E+00

     negative rho (up, down):  1.172E-03 0.000E+00

     negative rho (up, down):  1.172E-03 0.000E+00

     total cpu time spent up to now is      330.9 secs

     total energy              =    -446.34128413 Ry
     Harris-Foulkes estimate   =    -447.99537942 Ry
     estimated scf accuracy    <       2.83028547 Ry

     iteration #  3     ecut=    20.00 Ry     beta=0.70
     Davidson diagonalization with overlap

     negative rho (up, down):  1.172E-03 0.000E+00
     ethr =  8.32E-03,  avg # of iterations =  2.0

     total cpu time spent up to now is      349.9 secs

     total energy              =    -446.34128413 Ry
     Harris-Foulkes estimate   =    -447.99537942 Ry
     estimated scf accuracy    <       2.83028547 Ry

     iteration #  3     ecut=    20.00 Ry     beta=0.70
     Davidson diagonalization with overlap

     total cpu time spent up to now is      365.7 secs

     total energy              =    -446.34128413 Ry
     Harris-Foulkes estimate   =    -447.99537942 Ry
     estimated scf accuracy    <       2.83028547 Ry

     iteration #  3     ecut=    20.00 Ry     beta=0.70
     Davidson diagonalization with overlap
     ethr =  8.32E-03,  avg # of iterations =  2.0

     total cpu time spent up to now is      369.5 secs

     total energy              =    -446.34128413 Ry
     Harris-Foulkes estimate   =    -447.99537942 Ry
     estimated scf accuracy    <       2.83028547 Ry

     iteration #  3     ecut=    20.00 Ry     beta=0.70
     Davidson diagonalization with overlap
     ethr =  8.32E-03,  avg # of iterations =  2.0
     ethr =  8.32E-03,  avg # of iterations =  2.0

     negative rho (up, down):  1.908E-03 0.000E+00

     negative rho (up, down):  1.908E-03 0.000E+00

     negative rho (up, down):  1.908E-03 0.000E+00

     negative rho (up, down):  1.908E-03 0.000E+00

     total cpu time spent up to now is      451.1 secs

     total energy              =    -446.98224333 Ry
     Harris-Foulkes estimate   =    -447.28058925 Ry
     estimated scf accuracy    <       0.56464502 Ry

     iteration #  4     ecut=    20.00 Ry     beta=0.70
     Davidson diagonalization with overlap
     ethr =  1.66E-03,  avg # of iterations =  2.0

     total cpu time spent up to now is      479.3 secs

     total energy              =    -446.98224333 Ry
     Harris-Foulkes estimate   =    -447.28058925 Ry
     estimated scf accuracy    <       0.56464502 Ry

     iteration #  4     ecut=    20.00 Ry     beta=0.70
     Davidson diagonalization with overlap

     total cpu time spent up to now is      487.8 secs

     total energy              =    -446.98224333 Ry
     Harris-Foulkes estimate   =    -447.28058925 Ry
     estimated scf accuracy    <       0.56464502 Ry

     iteration #  4     ecut=    20.00 Ry     beta=0.70
     Davidson diagonalization with overlap
     ethr =  1.66E-03,  avg # of iterations =  2.0

     total cpu time spent up to now is      500.5 secs

     total energy              =    -446.98224333 Ry
     Harris-Foulkes estimate   =    -447.28058925 Ry
     estimated scf accuracy    <       0.56464502 Ry

     iteration #  4     ecut=    20.00 Ry     beta=0.70
     Davidson diagonalization with overlap
     ethr =  1.66E-03,  avg # of iterations =  2.0
     ethr =  1.66E-03,  avg # of iterations =  2.0

     negative rho (up, down):  2.216E-03 0.000E+00

     negative rho (up, down):  2.216E-03 0.000E+00

     negative rho (up, down):  2.216E-03 0.000E+00

     negative rho (up, down):  2.216E-03 0.000E+00

     total cpu time spent up to now is      592.9 secs

     total energy              =    -447.09539462 Ry
     Harris-Foulkes estimate   =    -447.10592321 Ry
     estimated scf accuracy    <       0.02682541 Ry

     iteration #  5     ecut=    20.00 Ry     beta=0.70
     Davidson diagonalization with overlap

     total cpu time spent up to now is      607.1 secs

     total energy              =    -447.09539462 Ry
     Harris-Foulkes estimate   =    -447.10592321 Ry
     estimated scf accuracy    <       0.02682541 Ry

     iteration #  5     ecut=    20.00 Ry     beta=0.70
     Davidson diagonalization with overlap

     total cpu time spent up to now is      607.5 secs

     total energy              =    -447.09539462 Ry
     Harris-Foulkes estimate   =    -447.10592321 Ry
     estimated scf accuracy    <       0.02682541 Ry

     iteration #  5     ecut=    20.00 Ry     beta=0.70
     Davidson diagonalization with overlap
     ethr =  7.89E-05,  avg # of iterations =  2.0

     total cpu time spent up to now is      623.5 secs

     total energy              =    -447.09539462 Ry
     Harris-Foulkes estimate   =    -447.10592321 Ry
     estimated scf accuracy    <       0.02682541 Ry

     iteration #  5     ecut=    20.00 Ry     beta=0.70
     Davidson diagonalization with overlap
     ethr =  7.89E-05,  avg # of iterations =  2.0
     ethr =  7.89E-05,  avg # of iterations =  2.0
     ethr =  7.89E-05,  avg # of iterations =  2.0

     negative rho (up, down):  1.943E-03 0.000E+00

     negative rho (up, down):  1.943E-03 0.000E+00

     negative rho (up, down):  1.943E-03 0.000E+00

     negative rho (up, down):  1.943E-03 0.000E+00

     total cpu time spent up to now is      730.9 secs

     total energy              =    -447.09770594 Ry
     Harris-Foulkes estimate   =    -447.09834314 Ry
     estimated scf accuracy    <       0.00097501 Ry

     iteration #  6     ecut=    20.00 Ry     beta=0.70
     Davidson diagonalization with overlap

     total cpu time spent up to now is      750.0 secs

     total energy              =    -447.09770594 Ry
     Harris-Foulkes estimate   =    -447.09834314 Ry
     estimated scf accuracy    <       0.00097501 Ry

     iteration #  6     ecut=    20.00 Ry     beta=0.70
     Davidson diagonalization with overlap
     ethr =  2.87E-06,  avg # of iterations =  2.2

     total cpu time spent up to now is      750.7 secs

     total energy              =    -447.09770594 Ry
     Harris-Foulkes estimate   =    -447.09834314 Ry
     estimated scf accuracy    <       0.00097501 Ry

     iteration #  6     ecut=    20.00 Ry     beta=0.70
     Davidson diagonalization with overlap

     total cpu time spent up to now is      767.2 secs

     total energy              =    -447.09770594 Ry
     Harris-Foulkes estimate   =    -447.09834314 Ry
     estimated scf accuracy    <       0.00097501 Ry

     iteration #  6     ecut=    20.00 Ry     beta=0.70
     Davidson diagonalization with overlap
     ethr =  2.87E-06,  avg # of iterations =  2.2
     ethr =  2.87E-06,  avg # of iterations =  2.2
     ethr =  2.87E-06,  avg # of iterations =  2.2

     negative rho (up, down):  1.980E-03 0.000E+00

     negative rho (up, down):  1.980E-03 0.000E+00

     negative rho (up, down):  1.980E-03 0.000E+00

     negative rho (up, down):  1.980E-03 0.000E+00

     total cpu time spent up to now is      863.9 secs

     total energy              =    -447.09792191 Ry
     Harris-Foulkes estimate   =    -447.09792577 Ry
     estimated scf accuracy    <       0.00001178 Ry

     iteration #  7     ecut=    20.00 Ry     beta=0.70
     Davidson diagonalization with overlap

     total cpu time spent up to now is      864.8 secs

     total energy              =    -447.09792191 Ry
     Harris-Foulkes estimate   =    -447.09792577 Ry
     estimated scf accuracy    <       0.00001178 Ry

     iteration #  7     ecut=    20.00 Ry     beta=0.70
     Davidson diagonalization with overlap

     total cpu time spent up to now is      872.1 secs

     total energy              =    -447.09792191 Ry
     Harris-Foulkes estimate   =    -447.09792577 Ry
     estimated scf accuracy    <       0.00001178 Ry

     iteration #  7     ecut=    20.00 Ry     beta=0.70
     Davidson diagonalization with overlap
     ethr =  3.47E-08,  avg # of iterations =  2.3
     ethr =  3.47E-08,  avg # of iterations =  2.3
     ethr =  3.47E-08,  avg # of iterations =  2.3

     total cpu time spent up to now is      891.7 secs

     total energy              =    -447.09792191 Ry
     Harris-Foulkes estimate   =    -447.09792577 Ry
     estimated scf accuracy    <       0.00001178 Ry

     iteration #  7     ecut=    20.00 Ry     beta=0.70
     Davidson diagonalization with overlap
     ethr =  3.47E-08,  avg # of iterations =  2.3

     negative rho (up, down):  1.992E-03 0.000E+00

     negative rho (up, down):  1.992E-03 0.000E+00

     negative rho (up, down):  1.992E-03 0.000E+00

     negative rho (up, down):  1.992E-03 0.000E+00

     total cpu time spent up to now is      992.0 secs

     total energy              =    -447.09792486 Ry
     Harris-Foulkes estimate   =    -447.09792497 Ry
     estimated scf accuracy    <       0.00000015 Ry

     iteration #  8     ecut=    20.00 Ry     beta=0.70
     Davidson diagonalization with overlap

     total cpu time spent up to now is      998.3 secs

     total energy              =    -447.09792486 Ry
     Harris-Foulkes estimate   =    -447.09792497 Ry
     estimated scf accuracy    <       0.00000015 Ry

     iteration #  8     ecut=    20.00 Ry     beta=0.70
     Davidson diagonalization with overlap

     total cpu time spent up to now is     1000.4 secs

     total energy              =    -447.09792486 Ry
     Harris-Foulkes estimate   =    -447.09792497 Ry
     estimated scf accuracy    <       0.00000015 Ry

     iteration #  8     ecut=    20.00 Ry     beta=0.70
     Davidson diagonalization with overlap
     ethr =  4.46E-10,  avg # of iterations =  3.0

     total cpu time spent up to now is     1017.4 secs

     total energy              =    -447.09792486 Ry
     Harris-Foulkes estimate   =    -447.09792497 Ry
     estimated scf accuracy    <       0.00000015 Ry

     iteration #  8     ecut=    20.00 Ry     beta=0.70
     Davidson diagonalization with overlap
     ethr =  4.46E-10,  avg # of iterations =  3.0
     ethr =  4.46E-10,  avg # of iterations =  3.0
     ethr =  4.46E-10,  avg # of iterations =  3.0

     negative rho (up, down):  1.990E-03 0.000E+00

     negative rho (up, down):  1.990E-03 0.000E+00

     negative rho (up, down):  1.990E-03 0.000E+00

     negative rho (up, down):  1.990E-03 0.000E+00

     total cpu time spent up to now is     1118.2 secs

     total energy              =    -447.09792494 Ry
     Harris-Foulkes estimate   =    -447.09792495 Ry
     estimated scf accuracy    <       0.00000002 Ry

     iteration #  9     ecut=    20.00 Ry     beta=0.70
     Davidson diagonalization with overlap

     total cpu time spent up to now is     1131.2 secs

     total energy              =    -447.09792494 Ry
     Harris-Foulkes estimate   =    -447.09792495 Ry
     estimated scf accuracy    <       0.00000002 Ry

     iteration #  9     ecut=    20.00 Ry     beta=0.70
     Davidson diagonalization with overlap

     total cpu time spent up to now is     1137.1 secs

     total energy              =    -447.09792494 Ry
     Harris-Foulkes estimate   =    -447.09792495 Ry
     estimated scf accuracy    <       0.00000002 Ry

     iteration #  9     ecut=    20.00 Ry     beta=0.70
     Davidson diagonalization with overlap
     ethr =  5.11E-11,  avg # of iterations =  2.0

     total cpu time spent up to now is     1137.3 secs

     total energy              =    -447.09792494 Ry
     Harris-Foulkes estimate   =    -447.09792495 Ry
     estimated scf accuracy    <       0.00000002 Ry

     iteration #  9     ecut=    20.00 Ry     beta=0.70
     Davidson diagonalization with overlap
     ethr =  5.11E-11,  avg # of iterations =  2.0
     ethr =  5.11E-11,  avg # of iterations =  2.0
     ethr =  5.11E-11,  avg # of iterations =  2.0

     negative rho (up, down):  1.990E-03 0.000E+00

     negative rho (up, down):  1.990E-03 0.000E+00

     negative rho (up, down):  1.990E-03 0.000E+00

     negative rho (up, down):  1.990E-03 0.000E+00

     total cpu time spent up to now is     1229.7 secs

     End of self-consistent calculation
 --- enter write_ns ---
 LDA+U parameters:
U( 1)     =  4.00000000
alpha( 1) =  0.00000000
atom    2   Tr[ns(na)] =   5.49009
    eigenvalues: 
  0.915  0.915  0.915
    eigenvectors:
  0.442  0.186  0.371
  0.456  0.000  0.544
  0.101  0.814  0.085
    occupations:
  0.915 -0.000  0.000
 -0.000  0.915 -0.000
  0.000 -0.000  0.915
atom    3   Tr[ns(na)] =   5.49009
    eigenvalues: 
  0.915  0.915  0.915
    eigenvectors:
  0.371  0.257  0.372
  0.583  0.028  0.389
  0.046  0.715  0.239
    occupations:
  0.915 -0.000  0.000
 -0.000  0.915 -0.000
  0.000 -0.000  0.915
N of occupied +U levels =   10.980177
 --- exit write_ns ---

          k =-0.1667 0.1667 0.1667 (   396 PWs)   bands (ev):

   -59.0998 -58.7849 -58.7849 -55.9035 -55.9035 -38.6850 -15.1955 -15.1793
   -15.1793  -3.1709  -1.5471  10.1582  10.1582  10.4102  12.1009  12.8229
    12.8229

          k = 0.5000-0.5000 0.8333 (   404 PWs)   bands (ev):

   -60.5029 -60.4253 -59.7928 -58.0153 -57.7604 -38.7475 -15.5698 -15.3206
   -15.2466  -2.4428  -1.9002   9.7063  10.1944  11.1319  11.5159  11.5850
    12.9155

          k = 0.1667-0.1667 0.5000 (   398 PWs)   bands (ev):

   -60.3350 -59.0008 -57.3689 -57.0508 -57.0238 -38.7143 -15.4404 -15.2206
   -15.1862  -2.6937  -1.7904   9.9482  10.2304  10.2544  11.6226  12.7852
    12.8965

          k =-0.1667-1.1667 0.1667 (   411 PWs)   bands (ev):

   -62.2831 -61.2550 -60.9504 -59.4136 -58.5990 -38.7847 -15.5360 -15.4369
   -15.4082  -2.1054  -1.9998   8.2030  10.0474  10.2546  12.8570  12.8577
    13.0730

          k =-0.5000-0.8333-0.1667 (   400 PWs)   bands (ev):

   -59.9923 -59.8145 -58.9955 -57.4850 -57.3580 -38.7430 -15.4725 -15.4083
   -15.2996  -2.1265  -1.9695   8.9378   9.3434  11.4131  11.6205  12.9084
    13.1630

          k = 0.5000-0.5000-0.5000 (   410 PWs)   bands (ev):

   -62.7239 -62.7239 -58.9640 -58.9640 -58.1161 -38.7709 -15.6158 -15.3301
   -15.3301  -2.4842  -1.8934  10.6099  10.7758  10.8303  10.8303  11.7316
    11.7316

     highest occupied level (ev):    13.1630

!    total energy              =    -447.09792495 Ry
     Harris-Foulkes estimate   =    -447.09792495 Ry
     estimated scf accuracy    <          3.2E-10 Ry

     The total energy is the sum of the following terms:

     one-electron contribution =    -185.96176374 Ry
     hartree contribution      =     101.28619825 Ry
     xc contribution           =     -64.17549408 Ry
     ewald contribution        =    -298.38403638 Ry
     Hubbard energy            =       0.13717100 Ry

     convergence has been achieved in   9 iterations

     total cpu time spent up to now is     1259.7 secs

     End of self-consistent calculation
 --- enter write_ns ---
 LDA+U parameters:
U( 1)     =  4.00000000
alpha( 1) =  0.00000000
atom    2   Tr[ns(na)] =   5.49009
    eigenvalues: 
  0.915  0.915  0.915
    eigenvectors:
  0.442  0.186  0.371
  0.456  0.000  0.544
  0.101  0.814  0.085
    occupations:
  0.915 -0.000  0.000
 -0.000  0.915 -0.000
  0.000 -0.000  0.915
atom    3   Tr[ns(na)] =   5.49009
    eigenvalues: 
  0.915  0.915  0.915
    eigenvectors:
  0.371  0.257  0.372
  0.583  0.028  0.389
  0.046  0.715  0.239
    occupations:
  0.915 -0.000  0.000
 -0.000  0.915 -0.000
  0.000 -0.000  0.915
N of occupied +U levels =   10.980177
 --- exit write_ns ---

          k =-0.1667 0.1667 0.1667 (   396 PWs)   bands (ev):

   -59.0998 -58.7849 -58.7849 -55.9035 -55.9035 -38.6850 -15.1955 -15.1793
   -15.1793  -3.1709  -1.5471  10.1582  10.1582  10.4102  12.1009  12.8229
    12.8229

          k = 0.5000-0.5000 0.8333 (   404 PWs)   bands (ev):

   -60.5029 -60.4253 -59.7928 -58.0153 -57.7604 -38.7475 -15.5698 -15.3206
   -15.2466  -2.4428  -1.9002   9.7063  10.1944  11.1319  11.5159  11.5850
    12.9155

          k = 0.1667-0.1667 0.5000 (   398 PWs)   bands (ev):

   -60.3350 -59.0008 -57.3689 -57.0508 -57.0238 -38.7143 -15.4404 -15.2206
   -15.1862  -2.6937  -1.7904   9.9482  10.2304  10.2544  11.6226  12.7852
    12.8965

          k =-0.1667-1.1667 0.1667 (   411 PWs)   bands (ev):

   -62.2831 -61.2550 -60.9504 -59.4136 -58.5990 -38.7847 -15.5360 -15.4369
   -15.4082  -2.1054  -1.9998   8.2030  10.0474  10.2546  12.8570  12.8577
    13.0730

          k =-0.5000-0.8333-0.1667 (   400 PWs)   bands (ev):

   -59.9923 -59.8145 -58.9955 -57.4850 -57.3580 -38.7430 -15.4725 -15.4083
   -15.2996  -2.1265  -1.9695   8.9378   9.3434  11.4131  11.6205  12.9084
    13.1630

          k = 0.5000-0.5000-0.5000 (   410 PWs)   bands (ev):

   -62.7239 -62.7239 -58.9640 -58.9640 -58.1161 -38.7709 -15.6158 -15.3301
   -15.3301  -2.4842  -1.8934  10.6099  10.7758  10.8303  10.8303  11.7316
    11.7316

     highest occupied level (ev):    13.1630

!    total energy              =    -447.09792495 Ry
     Harris-Foulkes estimate   =    -447.09792495 Ry
     estimated scf accuracy    <          3.2E-10 Ry

     The total energy is the sum of the following terms:

     one-electron contribution =    -185.96176374 Ry
     hartree contribution      =     101.28619825 Ry
     xc contribution           =     -64.17549408 Ry
     ewald contribution        =    -298.38403638 Ry
     Hubbard energy            =       0.13717100 Ry

     convergence has been achieved in   9 iterations

     total cpu time spent up to now is     1260.2 secs

     End of self-consistent calculation
 --- enter write_ns ---
 LDA+U parameters:
U( 1)     =  4.00000000
alpha( 1) =  0.00000000
atom    2   Tr[ns(na)] =   5.49009
    eigenvalues: 
  0.915  0.915  0.915
    eigenvectors:
  0.442  0.186  0.371
  0.456  0.000  0.544
  0.101  0.814  0.085
    occupations:
  0.915 -0.000  0.000
 -0.000  0.915 -0.000
  0.000 -0.000  0.915
atom    3   Tr[ns(na)] =   5.49009
    eigenvalues: 
  0.915  0.915  0.915
    eigenvectors:
  0.371  0.257  0.372
  0.583  0.028  0.389
  0.046  0.715  0.239
    occupations:
  0.915 -0.000  0.000
 -0.000  0.915 -0.000
  0.000 -0.000  0.915
N of occupied +U levels =   10.980177
 --- exit write_ns ---

          k =-0.1667 0.1667 0.1667 (   396 PWs)   bands (ev):

   -59.0998 -58.7849 -58.7849 -55.9035 -55.9035 -38.6850 -15.1955 -15.1793
   -15.1793  -3.1709  -1.5471  10.1582  10.1582  10.4102  12.1009  12.8229
    12.8229

          k = 0.5000-0.5000 0.8333 (   404 PWs)   bands (ev):

   -60.5029 -60.4253 -59.7928 -58.0153 -57.7604 -38.7475 -15.5698 -15.3206
   -15.2466  -2.4428  -1.9002   9.7063  10.1944  11.1319  11.5159  11.5850
    12.9155

          k = 0.1667-0.1667 0.5000 (   398 PWs)   bands (ev):

   -60.3350 -59.0008 -57.3689 -57.0508 -57.0238 -38.7143 -15.4404 -15.2206
   -15.1862  -2.6937  -1.7904   9.9482  10.2304  10.2544  11.6226  12.7852
    12.8965

          k =-0.1667-1.1667 0.1667 (   411 PWs)   bands (ev):

   -62.2831 -61.2550 -60.9504 -59.4136 -58.5990 -38.7847 -15.5360 -15.4369
   -15.4082  -2.1054  -1.9998   8.2030  10.0474  10.2546  12.8570  12.8577
    13.0730

          k =-0.5000-0.8333-0.1667 (   400 PWs)   bands (ev):

   -59.9923 -59.8145 -58.9955 -57.4850 -57.3580 -38.7430 -15.4725 -15.4083
   -15.2996  -2.1265  -1.9695   8.9378   9.3434  11.4131  11.6205  12.9084
    13.1630

          k = 0.5000-0.5000-0.5000 (   410 PWs)   bands (ev):

   -62.7239 -62.7239 -58.9640 -58.9640 -58.1161 -38.7709 -15.6158 -15.3301
   -15.3301  -2.4842  -1.8934  10.6099  10.7758  10.8303  10.8303  11.7316
    11.7316

     highest occupied level (ev):    13.1630

!    total energy              =    -447.09792495 Ry
     Harris-Foulkes estimate   =    -447.09792495 Ry
     estimated scf accuracy    <          3.2E-10 Ry

     The total energy is the sum of the following terms:

     one-electron contribution =    -185.96176374 Ry
     hartree contribution      =     101.28619825 Ry
     xc contribution           =     -64.17549408 Ry
     ewald contribution        =    -298.38403638 Ry
     Hubbard energy            =       0.13717100 Ry

     convergence has been achieved in   9 iterations

     total cpu time spent up to now is     1263.3 secs

     End of self-consistent calculation
 --- enter write_ns ---
 LDA+U parameters:
U( 1)     =  4.00000000
alpha( 1) =  0.00000000
atom    2   Tr[ns(na)] =   5.49009
    eigenvalues: 
  0.915  0.915  0.915
    eigenvectors:
  0.442  0.186  0.371
  0.456  0.000  0.544
  0.101  0.814  0.085
    occupations:
  0.915 -0.000  0.000
 -0.000  0.915 -0.000
  0.000 -0.000  0.915
atom    3   Tr[ns(na)] =   5.49009
    eigenvalues: 
  0.915  0.915  0.915
    eigenvectors:
  0.371  0.257  0.372
  0.583  0.028  0.389
  0.046  0.715  0.239
    occupations:
  0.915 -0.000  0.000
 -0.000  0.915 -0.000
  0.000 -0.000  0.915
N of occupied +U levels =   10.980177
 --- exit write_ns ---

          k =-0.1667 0.1667 0.1667 (   396 PWs)   bands (ev):

   -59.0998 -58.7849 -58.7849 -55.9035 -55.9035 -38.6850 -15.1955 -15.1793
   -15.1793  -3.1709  -1.5471  10.1582  10.1582  10.4102  12.1009  12.8229
    12.8229

          k = 0.5000-0.5000 0.8333 (   404 PWs)   bands (ev):

   -60.5029 -60.4253 -59.7928 -58.0153 -57.7604 -38.7475 -15.5698 -15.3206
   -15.2466  -2.4428  -1.9002   9.7063  10.1944  11.1319  11.5159  11.5850
    12.9155

          k = 0.1667-0.1667 0.5000 (   398 PWs)   bands (ev):

   -60.3350 -59.0008 -57.3689 -57.0508 -57.0238 -38.7143 -15.4404 -15.2206
   -15.1862  -2.6937  -1.7904   9.9482  10.2304  10.2544  11.6226  12.7852
    12.8965

          k =-0.1667-1.1667 0.1667 (   411 PWs)   bands (ev):

   -62.2831 -61.2550 -60.9504 -59.4136 -58.5990 -38.7847 -15.5360 -15.4369
   -15.4082  -2.1054  -1.9998   8.2030  10.0474  10.2546  12.8570  12.8577
    13.0730

          k =-0.5000-0.8333-0.1667 (   400 PWs)   bands (ev):

   -59.9923 -59.8145 -58.9955 -57.4850 -57.3580 -38.7430 -15.4725 -15.4083
   -15.2996  -2.1265  -1.9695   8.9378   9.3434  11.4131  11.6205  12.9084
    13.1630

          k = 0.5000-0.5000-0.5000 (   410 PWs)   bands (ev):

   -62.7239 -62.7239 -58.9640 -58.9640 -58.1161 -38.7709 -15.6158 -15.3301
   -15.3301  -2.4842  -1.8934  10.6099  10.7758  10.8303  10.8303  11.7316
    11.7316

     highest occupied level (ev):    13.1630

!    total energy              =    -447.09792495 Ry
     Harris-Foulkes estimate   =    -447.09792495 Ry
     estimated scf accuracy    <          3.2E-10 Ry

     The total energy is the sum of the following terms:

     one-electron contribution =    -185.96176374 Ry
     hartree contribution      =     101.28619825 Ry
     xc contribution           =     -64.17549408 Ry
     ewald contribution        =    -298.38403638 Ry
     Hubbard energy            =       0.13717100 Ry

     convergence has been achieved in   9 iterations

     negative rho (up, down):  1.990E-03 0.000E+00

     Forces acting on atoms (cartesian axes, Ry/au):

     atom    1 type  2   force =     0.00000000    0.00000000    0.00000000
     atom    2 type  1   force =     0.00000000    0.00000000    0.00000000
     atom    3 type  1   force =     0.00000000    0.00000000   -0.00000000

     Total force =     0.000000     Total SCF correction =     0.000000


     Computing stress (Cartesian axis) and pressure


     negative rho (up, down):  1.990E-03 0.000E+00

     negative rho (up, down):  1.990E-03 0.000E+00

     negative rho (up, down):  1.990E-03 0.000E+00

     negative rho (up, down):  1.990E-03 0.000E+00

     Forces acting on atoms (cartesian axes, Ry/au):

     atom    1 type  2   force =     0.00000000    0.00000000    0.00000000
     atom    2 type  1   force =     0.00000000    0.00000000    0.00000000
     atom    3 type  1   force =     0.00000000    0.00000000   -0.00000000

     Total force =     0.000000     Total SCF correction =     0.000000


     Computing stress (Cartesian axis) and pressure


     negative rho (up, down):  1.990E-03 0.000E+00

     Forces acting on atoms (cartesian axes, Ry/au):

     atom    1 type  2   force =     0.00000000    0.00000000    0.00000000
     atom    2 type  1   force =     0.00000000    0.00000000    0.00000000
     atom    3 type  1   force =     0.00000000    0.00000000   -0.00000000

     Total force =     0.000000     Total SCF correction =     0.000000


     Computing stress (Cartesian axis) and pressure


     negative rho (up, down):  1.990E-03 0.000E+00

     Forces acting on atoms (cartesian axes, Ry/au):

     atom    1 type  2   force =     0.00000000    0.00000000    0.00000000
     atom    2 type  1   force =     0.00000000    0.00000000    0.00000000
     atom    3 type  1   force =     0.00000000    0.00000000   -0.00000000

     Total force =     0.000000     Total SCF correction =     0.000000


     Computing stress (Cartesian axis) and pressure


     negative rho (up, down):  1.990E-03 0.000E+00
          total   stress  (Ry/bohr**3)                   (kbar)     P=********
  -0.20974976   0.00000000   0.00000000     -30855.25      0.00      0.00
   0.00000000  -0.20974976  -0.00000000          0.00 -30855.25     -0.00
   0.00000000  -0.00000000  -0.20974976          0.00     -0.00 -30855.25


     Writing output data file cerium.save

     init_run     :     65.91s CPU     77.33s WALL (       1 calls)
     electrons    :    986.84s CPU   1146.06s WALL (       1 calls)
     forces       :     71.19s CPU     76.49s WALL (       1 calls)
     stress       :    503.59s CPU    534.66s WALL (       1 calls)

     Called by init_run:
     wfcinit      :     17.48s CPU     20.04s WALL (       1 calls)
     potinit      :      0.09s CPU      0.11s WALL (       1 calls)

     Called by electrons:
     c_bands      :    152.31s CPU    179.54s WALL (       9 calls)
     sum_band     :    489.18s CPU    574.83s WALL (       9 calls)
     v_of_rho     :      0.88s CPU      1.19s WALL (      10 calls)
     newd         :    379.64s CPU    429.92s WALL (      10 calls)
     mix_rho      :      0.04s CPU      0.05s WALL (       9 calls)

     Called by c_bands:
     init_us_2    :     68.16s CPU     76.87s WALL (     192 calls)
     cegterg      :    133.00s CPU    157.01s WALL (      54 calls)

     Called by sum_band:
     sum_band:bec :      4.40s CPU      5.05s WALL (      54 calls)
     addusdens    :    439.88s CPU    517.60s WALL (       9 calls)

     Called by *egterg:
     h_psi        :    139.50s CPU    163.55s WALL (     183 calls)
     s_psi        :      0.98s CPU      1.33s WALL (     249 calls)
     g_psi        :      0.04s CPU      0.10s WALL (     123 calls)
     cdiaghg      :      0.53s CPU      0.96s WALL (     177 calls)

     Called by h_psi:
     h_psi:pot    :    139.22s CPU    163.13s WALL (     183 calls)
     h_psi:calbec :      0.54s CPU      0.53s WALL (     183 calls)
     vloc_psi     :    138.12s CPU    161.92s WALL (     183 calls)
     add_vuspsi   :      0.56s CPU      0.68s WALL (     183 calls)
     vhpsi        :      0.25s CPU      0.36s WALL (     183 calls)

     General routines
     calbec       :      1.76s CPU      1.87s WALL (    1332 calls)
     fft          :      0.14s CPU      0.30s WALL (     154 calls)
     fftw         :      5.21s CPU      4.73s WALL (    6224 calls)
     davcio       :      0.00s CPU      0.03s WALL (      12 calls)


     Hubbard U routines
     new_ns       :      0.01s CPU      0.03s WALL (       9 calls)
     vhpsi        :      0.25s CPU      0.36s WALL (     183 calls)
     force_hub    :      4.61s CPU      4.84s WALL (       1 calls)
     stres_hub    :    300.00s CPU    319.18s WALL (       1 calls)

     PWSCF        : 27m12.76s CPU    30m41.25s WALL


   This run was terminated on:  21:50: 9  14May2018            

=------------------------------------------------------------------------------=
   JOB DONE.
=------------------------------------------------------------------------------=
          total   stress  (Ry/bohr**3)                   (kbar)     P=********
  -0.20974976   0.00000000   0.00000000     -30855.25      0.00      0.00
   0.00000000  -0.20974976  -0.00000000          0.00 -30855.25     -0.00
   0.00000000  -0.00000000  -0.20974976          0.00     -0.00 -30855.25


     Writing output data file cerium.save

     init_run     :     75.92s CPU     90.91s WALL (       1 calls)
     electrons    :    999.93s CPU   1161.81s WALL (       1 calls)
     forces       :     67.14s CPU     70.11s WALL (       1 calls)
     stress       :    493.66s CPU    519.73s WALL (       1 calls)

     Called by init_run:
     wfcinit      :     17.77s CPU     21.14s WALL (       1 calls)
     potinit      :      0.11s CPU      0.19s WALL (       1 calls)

     Called by electrons:
     c_bands      :    149.23s CPU    174.76s WALL (       9 calls)
     sum_band     :    498.23s CPU    582.50s WALL (       9 calls)
     v_of_rho     :      0.81s CPU      1.03s WALL (      10 calls)
     newd         :    384.61s CPU    440.33s WALL (      10 calls)
     mix_rho      :      0.06s CPU      0.10s WALL (       9 calls)

     Called by c_bands:
     init_us_2    :     66.53s CPU     74.98s WALL (     192 calls)
     cegterg      :    130.87s CPU    153.45s WALL (      54 calls)

     Called by sum_band:
     sum_band:bec :      3.99s CPU      4.65s WALL (      54 calls)
     addusdens    :    451.12s CPU    526.58s WALL (       9 calls)

     Called by *egterg:
     h_psi        :    137.72s CPU    159.68s WALL (     183 calls)
     s_psi        :      0.84s CPU      1.17s WALL (     249 calls)
     g_psi        :      0.02s CPU      0.06s WALL (     123 calls)
     cdiaghg      :      0.59s CPU      1.09s WALL (     177 calls)

     Called by h_psi:
     h_psi:pot    :    137.51s CPU    159.41s WALL (     183 calls)
     h_psi:calbec :      0.54s CPU      0.49s WALL (     183 calls)
     vloc_psi     :    136.32s CPU    158.17s WALL (     183 calls)
     add_vuspsi   :      0.64s CPU      0.76s WALL (     183 calls)
     vhpsi        :      0.16s CPU      0.23s WALL (     183 calls)

     General routines
     calbec       :      1.75s CPU      1.78s WALL (    1332 calls)
     fft          :      0.20s CPU      0.22s WALL (     154 calls)
     fftw         :      5.20s CPU      4.60s WALL (    6224 calls)
     davcio       :      0.00s CPU      0.00s WALL (      12 calls)


     Hubbard U routines
     new_ns       :      0.02s CPU      0.05s WALL (       9 calls)
     vhpsi        :      0.16s CPU      0.23s WALL (     183 calls)
     force_hub    :      5.01s CPU      5.13s WALL (       1 calls)
     stres_hub    :    309.38s CPU    324.32s WALL (       1 calls)

     PWSCF        : 27m28.16s CPU    30m53.57s WALL


   This run was terminated on:  21:50:21  14May2018            

=------------------------------------------------------------------------------=
   JOB DONE.
=------------------------------------------------------------------------------=
          total   stress  (Ry/bohr**3)                   (kbar)     P=********
  -0.20974976   0.00000000   0.00000000     -30855.25      0.00      0.00
   0.00000000  -0.20974976  -0.00000000          0.00 -30855.25     -0.00
   0.00000000  -0.00000000  -0.20974976          0.00     -0.00 -30855.25


     Writing output data file cerium.save

     init_run     :     97.30s CPU    113.80s WALL (       1 calls)
     electrons    :    981.20s CPU   1141.24s WALL (       1 calls)
     forces       :     73.60s CPU     76.51s WALL (       1 calls)
     stress       :    494.27s CPU    518.45s WALL (       1 calls)

     Called by init_run:
     wfcinit      :     16.80s CPU     20.11s WALL (       1 calls)
     potinit      :      0.11s CPU      0.18s WALL (       1 calls)

     Called by electrons:
     c_bands      :    150.10s CPU    181.49s WALL (       9 calls)
     sum_band     :    494.34s CPU    572.11s WALL (       9 calls)
     v_of_rho     :      0.76s CPU      1.01s WALL (      10 calls)
     newd         :    374.00s CPU    430.61s WALL (      10 calls)
     mix_rho      :      0.04s CPU      0.05s WALL (       9 calls)

     Called by c_bands:
     init_us_2    :     67.51s CPU     76.92s WALL (     192 calls)
     cegterg      :    130.93s CPU    158.36s WALL (      54 calls)

     Called by sum_band:
     sum_band:bec :      4.15s CPU      4.90s WALL (      54 calls)
     addusdens    :    446.05s CPU    514.64s WALL (       9 calls)

     Called by *egterg:
     h_psi        :    136.41s CPU    164.04s WALL (     183 calls)
     s_psi        :      1.16s CPU      1.53s WALL (     249 calls)
     g_psi        :      0.04s CPU      0.10s WALL (     123 calls)
     cdiaghg      :      0.61s CPU      1.18s WALL (     177 calls)

     Called by h_psi:
     h_psi:pot    :    136.25s CPU    163.73s WALL (     183 calls)
     h_psi:calbec :      0.54s CPU      0.58s WALL (     183 calls)
     vloc_psi     :    135.16s CPU    162.53s WALL (     183 calls)
     add_vuspsi   :      0.56s CPU      0.62s WALL (     183 calls)
     vhpsi        :      0.16s CPU      0.29s WALL (     183 calls)

     General routines
     calbec       :      1.73s CPU      1.97s WALL (    1332 calls)
     fft          :      0.23s CPU      0.31s WALL (     154 calls)
     fftw         :      4.98s CPU      4.44s WALL (    6224 calls)
     davcio       :      0.00s CPU      0.00s WALL (      12 calls)


     Hubbard U routines
     new_ns       :      0.03s CPU      0.08s WALL (       9 calls)
     vhpsi        :      0.16s CPU      0.29s WALL (     183 calls)
     force_hub    :      4.72s CPU      4.70s WALL (       1 calls)
     stres_hub    :    290.28s CPU    302.82s WALL (       1 calls)

     PWSCF        : 27m30.28s CPU    30m54.77s WALL


   This run was terminated on:  21:50:23  14May2018            

=------------------------------------------------------------------------------=
   JOB DONE.
=------------------------------------------------------------------------------=
          total   stress  (Ry/bohr**3)                   (kbar)     P=********
  -0.20974976   0.00000000   0.00000000     -30855.25      0.00      0.00
   0.00000000  -0.20974976  -0.00000000          0.00 -30855.25     -0.00
   0.00000000  -0.00000000  -0.20974976          0.00     -0.00 -30855.25


     Writing output data file cerium.save

     init_run     :     85.62s CPU     99.42s WALL (       1 calls)
     electrons    :    992.26s CPU   1153.28s WALL (       1 calls)
     forces       :     68.08s CPU     71.22s WALL (       1 calls)
     stress       :    498.77s CPU    523.35s WALL (       1 calls)

     Called by init_run:
     wfcinit      :     17.98s CPU     20.51s WALL (       1 calls)
     potinit      :      0.11s CPU      0.16s WALL (       1 calls)

     Called by electrons:
     c_bands      :    152.01s CPU    180.52s WALL (       9 calls)
     sum_band     :    484.37s CPU    558.30s WALL (       9 calls)
     v_of_rho     :      0.76s CPU      1.03s WALL (      10 calls)
     newd         :    393.00s CPU    457.05s WALL (      10 calls)
     mix_rho      :      0.04s CPU      0.08s WALL (       9 calls)

     Called by c_bands:
     init_us_2    :     67.82s CPU     76.20s WALL (     192 calls)
     cegterg      :    132.61s CPU    157.75s WALL (      54 calls)

     Called by sum_band:
     sum_band:bec :      3.96s CPU      4.78s WALL (      54 calls)
     addusdens    :    436.79s CPU    502.17s WALL (       9 calls)

     Called by *egterg:
     h_psi        :    138.98s CPU    163.72s WALL (     183 calls)
     s_psi        :      0.96s CPU      1.21s WALL (     249 calls)
     g_psi        :      0.02s CPU      0.03s WALL (     123 calls)
     cdiaghg      :      0.67s CPU      1.24s WALL (     177 calls)

     Called by h_psi:
     h_psi:pot    :    138.75s CPU    163.48s WALL (     183 calls)
     h_psi:calbec :      0.55s CPU      0.54s WALL (     183 calls)
     vloc_psi     :    137.58s CPU    162.25s WALL (     183 calls)
     add_vuspsi   :      0.60s CPU      0.69s WALL (     183 calls)
     vhpsi        :      0.18s CPU      0.19s WALL (     183 calls)

     General routines
     calbec       :      1.84s CPU      1.91s WALL (    1332 calls)
     fft          :      0.22s CPU      0.35s WALL (     154 calls)
     fftw         :      4.70s CPU      4.47s WALL (    6224 calls)
     davcio       :      0.00s CPU      0.00s WALL (      12 calls)


     Hubbard U routines
     new_ns       :      0.02s CPU      0.07s WALL (       9 calls)
     vhpsi        :      0.18s CPU      0.19s WALL (     183 calls)
     force_hub    :      4.87s CPU      5.15s WALL (       1 calls)
     stres_hub    :    303.01s CPU    315.57s WALL (       1 calls)

     PWSCF        : 27m31.45s CPU    30m54.92s WALL


   This run was terminated on:  21:50:23  14May2018            

=------------------------------------------------------------------------------=
   JOB DONE.
=------------------------------------------------------------------------------=
