
     Program PWSCF v.6.1 (svn rev. 13369) starts on 14May2018 at 20:48:24 


     Program PWSCF v.6.1 (svn rev. 13369) starts on 14May2018 at 20:48:24 

     This program is part of the open-source Quantum ESPRESSO suite
     for quantum simulation of materials; please cite
         "P. Giannozzi et al., J. Phys.:Condens. Matter 21 395502 (2009);
          URL http://www.quantum-espresso.org", 
     in publications or presentations arising from this work. More details at
     http://www.quantum-espresso.org/quote

     Serial multi-threaded version, running on    4 processor cores

     Program PWSCF v.6.1 (svn rev. 13369) starts on 14May2018 at 20:48:24 

     This program is part of the open-source Quantum ESPRESSO suite
     for quantum simulation of materials; please cite
         "P. Giannozzi et al., J. Phys.:Condens. Matter 21 395502 (2009);
          URL http://www.quantum-espresso.org", 
     in publications or presentations arising from this work. More details at
     http://www.quantum-espresso.org/quote

     Program PWSCF v.6.1 (svn rev. 13369) starts on 14May2018 at 20:48:24 
     This program is part of the open-source Quantum ESPRESSO suite
     for quantum simulation of materials; please cite
         "P. Giannozzi et al., J. Phys.:Condens. Matter 21 395502 (2009);
          URL http://www.quantum-espresso.org", 

     Serial multi-threaded version, running on    4 processor cores
     in publications or presentations arising from this work. More details at
     http://www.quantum-espresso.org/quote

     Serial multi-threaded version, running on    4 processor cores

     This program is part of the open-source Quantum ESPRESSO suite
     for quantum simulation of materials; please cite
         "P. Giannozzi et al., J. Phys.:Condens. Matter 21 395502 (2009);
          URL http://www.quantum-espresso.org", 
     in publications or presentations arising from this work. More details at
     http://www.quantum-espresso.org/quote

     Serial multi-threaded version, running on    4 processor cores
     Reading input from ceo2.scf.david10.in
     Reading input from ceo2.scf.david10.in
     Reading input from ceo2.scf.david10.in
     Reading input from ceo2.scf.david10.in
     Message from routine read_cards :
     DEPRECATED: no units specified in ATOMIC_POSITIONS card
     Message from routine read_cards :
     Message from routine read_cards :
     DEPRECATED: no units specified in ATOMIC_POSITIONS card
     Message from routine read_cards :
     ATOMIC_POSITIONS: units set to alat
     Message from routine read_cards :
     DEPRECATED: no units specified in ATOMIC_POSITIONS card
     Message from routine read_cards :
     ATOMIC_POSITIONS: units set to alat
     ATOMIC_POSITIONS: units set to alat
     Message from routine read_cards :
     DEPRECATED: no units specified in ATOMIC_POSITIONS card
     Message from routine read_cards :
     ATOMIC_POSITIONS: units set to alat

     Current dimensions of program PWSCF are:
     Max number of different atomic species (ntypx) = 10
     Max number of k-points (npk) =  40000
     Max angular momentum in pseudopotentials (lmaxx) =  3

     Current dimensions of program PWSCF are:
     Max number of different atomic species (ntypx) = 10
     Max number of k-points (npk) =  40000
     Max angular momentum in pseudopotentials (lmaxx) =  3

     Current dimensions of program PWSCF are:
     Max number of different atomic species (ntypx) = 10
     Max number of k-points (npk) =  40000
     Max angular momentum in pseudopotentials (lmaxx) =  3

     Current dimensions of program PWSCF are:
     Max number of different atomic species (ntypx) = 10
     Max number of k-points (npk) =  40000
     Max angular momentum in pseudopotentials (lmaxx) =  3
               file O.pbe-nl-rrkjus_psl.1.0.0.UPF: wavefunction(s)  2S renormalized
               file O.pbe-nl-rrkjus_psl.1.0.0.UPF: wavefunction(s)  2S renormalized
               file O.pbe-nl-rrkjus_psl.1.0.0.UPF: wavefunction(s)  2S renormalized
               file O.pbe-nl-rrkjus_psl.1.0.0.UPF: wavefunction(s)  2S renormalized
               file Ce.pbe-spdfn-rrkjus_psl.1.0.0.UPF: wavefunction(s)  4F renormalized
               file Ce.pbe-spdfn-rrkjus_psl.1.0.0.UPF: wavefunction(s)  4F renormalized
               file Ce.pbe-spdfn-rrkjus_psl.1.0.0.UPF: wavefunction(s)  4F renormalized
               file Ce.pbe-spdfn-rrkjus_psl.1.0.0.UPF: wavefunction(s)  4F renormalized

     G-vector sticks info
     --------------------
     sticks:   dense  smooth     PW     G-vecs:    dense   smooth      PW
     Sum         151     151     55                 1139     1139     283



     bravais-lattice index     =            2
     lattice parameter (alat)  =      10.2253  a.u.
     unit-cell volume          =     267.2811 (a.u.)^3
     number of atoms/cell      =            3
     number of atomic types    =            2
     number of electrons       =        34.00
     number of Kohn-Sham states=           17
     kinetic-energy cutoff     =      10.0000  Ry
     charge density cutoff     =      40.0000  Ry
     convergence threshold     =      1.0E-08
     mixing beta               =       0.7000
     number of iterations used =            8  plain     mixing
     Exchange-correlation      = PBE ( 1  4  3  4 0 0)

     celldm(1)=  10.225300  celldm(2)=   0.000000  celldm(3)=   0.000000
     celldm(4)=   0.000000  celldm(5)=   0.000000  celldm(6)=   0.000000

     crystal axes: (cart. coord. in units of alat)
               a(1) = (  -0.500000   0.000000   0.500000 )  
               a(2) = (   0.000000   0.500000   0.500000 )  
               a(3) = (  -0.500000   0.500000   0.000000 )  

     reciprocal axes: (cart. coord. in units 2 pi/alat)
               b(1) = ( -1.000000 -1.000000  1.000000 )  
               b(2) = (  1.000000  1.000000  1.000000 )  
               b(3) = ( -1.000000  1.000000 -1.000000 )  


     PseudoPot. # 1 for  O read from file:
     /home/dmitry/qe/qe-6.1/pseudo/O.pbe-nl-rrkjus_psl.1.0.0.UPF
     MD5 check sum: 41aa6daaf7b486e514118ed2fcffca44
     Pseudo is Ultrasoft + core correction, Zval =  6.0
     Generated using "atomic" code by A. Dal Corso  v.6.1 svn rev. 13369
     Using radial grid of 1095 points,  4 beta functions with: 
                l(1) =   0
                l(2) =   0
                l(3) =   1
                l(4) =   1
     Q(r) pseudized with 0 coefficients 


     PseudoPot. # 2 for Ce read from file:
     /home/dmitry/qe/qe-6.1/pseudo/Ce.pbe-spdfn-rrkjus_psl.1.0.0.UPF
     MD5 check sum: 584ada09c8d63c147a4eb0bd2f8e9a4c
     Pseudo is Ultrasoft + core correction, Zval = 22.0
     Generated using "atomic" code by A. Dal Corso  v.6.1 svn rev. 13369
     Using radial grid of 1255 points,  8 beta functions with: 
                l(1) =   0
                l(2) =   0
                l(3) =   1
                l(4) =   1
                l(5) =   2
                l(6) =   2
                l(7) =   3
                l(8) =   3
     Q(r) pseudized with 0 coefficients 


     atomic species   valence    mass     pseudopotential
        O              6.00    15.99900      O( 1.00)
        Ce            22.00   140.12000     Ce( 1.00)


     Simplified LDA+U calculation (l_max = 1) with parameters (eV):
     atomic species    L          U    alpha       J0     beta
        O              1     4.0000   0.0000   0.0000   0.0000



     48 Sym. Ops., with inversion, found



   Cartesian axes

     site n.     atom                  positions (alat units)
         1           Ce  tau(   1) = (   0.0000000   0.0000000   0.0000000  )
         2           O   tau(   2) = (   0.2500000   0.2500000   0.2500000  )
         3           O   tau(   3) = (   0.7500000   0.7500000   0.7500000  )

     number of k points=     6
                       cart. coord. in units 2pi/alat
        k(    1) = (  -0.1666667   0.1666667   0.1666667), wk =   0.1481481
        k(    2) = (   0.5000000  -0.5000000   0.8333333), wk =   0.4444444
        k(    3) = (   0.1666667  -0.1666667   0.5000000), wk =   0.4444444
        k(    4) = (  -0.1666667  -1.1666667   0.1666667), wk =   0.4444444
        k(    5) = (  -0.5000000  -0.8333333  -0.1666667), wk =   0.4444444
        k(    6) = (   0.5000000  -0.5000000  -0.5000000), wk =   0.0740741

     Dense  grid:     1139 G-vectors     FFT dimensions: (  15,  15,  15)

     Estimated max dynamical RAM per process >       1.53MB

     G-vector sticks info
     --------------------
     sticks:   dense  smooth     PW     G-vecs:    dense   smooth      PW
     Sum         151     151     55                 1139     1139     283



     bravais-lattice index     =            2
     lattice parameter (alat)  =      10.2253  a.u.
     unit-cell volume          =     267.2811 (a.u.)^3
     number of atoms/cell      =            3
     number of atomic types    =            2
     number of electrons       =        34.00
     number of Kohn-Sham states=           17
     kinetic-energy cutoff     =      10.0000  Ry
     charge density cutoff     =      40.0000  Ry
     convergence threshold     =      1.0E-08
     mixing beta               =       0.7000
     number of iterations used =            8  plain     mixing
     Exchange-correlation      = PBE ( 1  4  3  4 0 0)

     celldm(1)=  10.225300  celldm(2)=   0.000000  celldm(3)=   0.000000
     celldm(4)=   0.000000  celldm(5)=   0.000000  celldm(6)=   0.000000

     crystal axes: (cart. coord. in units of alat)
               a(1) = (  -0.500000   0.000000   0.500000 )  
               a(2) = (   0.000000   0.500000   0.500000 )  
               a(3) = (  -0.500000   0.500000   0.000000 )  

     reciprocal axes: (cart. coord. in units 2 pi/alat)
               b(1) = ( -1.000000 -1.000000  1.000000 )  
               b(2) = (  1.000000  1.000000  1.000000 )  
               b(3) = ( -1.000000  1.000000 -1.000000 )  


     PseudoPot. # 1 for  O read from file:
     /home/dmitry/qe/qe-6.1/pseudo/O.pbe-nl-rrkjus_psl.1.0.0.UPF
     MD5 check sum: 41aa6daaf7b486e514118ed2fcffca44
     Pseudo is Ultrasoft + core correction, Zval =  6.0
     Generated using "atomic" code by A. Dal Corso  v.6.1 svn rev. 13369
     Using radial grid of 1095 points,  4 beta functions with: 
                l(1) =   0
                l(2) =   0
                l(3) =   1
                l(4) =   1
     Q(r) pseudized with 0 coefficients 


     PseudoPot. # 2 for Ce read from file:
     /home/dmitry/qe/qe-6.1/pseudo/Ce.pbe-spdfn-rrkjus_psl.1.0.0.UPF
     MD5 check sum: 584ada09c8d63c147a4eb0bd2f8e9a4c
     Pseudo is Ultrasoft + core correction, Zval = 22.0
     Generated using "atomic" code by A. Dal Corso  v.6.1 svn rev. 13369
     Using radial grid of 1255 points,  8 beta functions with: 
                l(1) =   0
                l(2) =   0
                l(3) =   1
                l(4) =   1
                l(5) =   2
                l(6) =   2
                l(7) =   3
                l(8) =   3
     Q(r) pseudized with 0 coefficients 


     atomic species   valence    mass     pseudopotential
        O              6.00    15.99900      O( 1.00)
        Ce            22.00   140.12000     Ce( 1.00)


     Simplified LDA+U calculation (l_max = 1) with parameters (eV):
     atomic species    L          U    alpha       J0     beta
        O              1     4.0000   0.0000   0.0000   0.0000



     48 Sym. Ops., with inversion, found



   Cartesian axes

     site n.     atom                  positions (alat units)
         1           Ce  tau(   1) = (   0.0000000   0.0000000   0.0000000  )
         2           O   tau(   2) = (   0.2500000   0.2500000   0.2500000  )
         3           O   tau(   3) = (   0.7500000   0.7500000   0.7500000  )

     number of k points=     6
                       cart. coord. in units 2pi/alat
        k(    1) = (  -0.1666667   0.1666667   0.1666667), wk =   0.1481481
        k(    2) = (   0.5000000  -0.5000000   0.8333333), wk =   0.4444444
        k(    3) = (   0.1666667  -0.1666667   0.5000000), wk =   0.4444444
        k(    4) = (  -0.1666667  -1.1666667   0.1666667), wk =   0.4444444
        k(    5) = (  -0.5000000  -0.8333333  -0.1666667), wk =   0.4444444
        k(    6) = (   0.5000000  -0.5000000  -0.5000000), wk =   0.0740741

     Dense  grid:     1139 G-vectors     FFT dimensions: (  15,  15,  15)

     Estimated max dynamical RAM per process >       1.53MB

     G-vector sticks info
     --------------------
     sticks:   dense  smooth     PW     G-vecs:    dense   smooth      PW
     Sum         151     151     55                 1139     1139     283



     bravais-lattice index     =            2
     lattice parameter (alat)  =      10.2253  a.u.
     unit-cell volume          =     267.2811 (a.u.)^3
     number of atoms/cell      =            3
     number of atomic types    =            2
     number of electrons       =        34.00
     number of Kohn-Sham states=           17
     kinetic-energy cutoff     =      10.0000  Ry
     charge density cutoff     =      40.0000  Ry
     convergence threshold     =      1.0E-08
     mixing beta               =       0.7000
     number of iterations used =            8  plain     mixing
     Exchange-correlation      = PBE ( 1  4  3  4 0 0)

     celldm(1)=  10.225300  celldm(2)=   0.000000  celldm(3)=   0.000000
     celldm(4)=   0.000000  celldm(5)=   0.000000  celldm(6)=   0.000000

     crystal axes: (cart. coord. in units of alat)
               a(1) = (  -0.500000   0.000000   0.500000 )  
               a(2) = (   0.000000   0.500000   0.500000 )  
               a(3) = (  -0.500000   0.500000   0.000000 )  

     reciprocal axes: (cart. coord. in units 2 pi/alat)
               b(1) = ( -1.000000 -1.000000  1.000000 )  
               b(2) = (  1.000000  1.000000  1.000000 )  
               b(3) = ( -1.000000  1.000000 -1.000000 )  


     PseudoPot. # 1 for  O read from file:
     /home/dmitry/qe/qe-6.1/pseudo/O.pbe-nl-rrkjus_psl.1.0.0.UPF
     MD5 check sum: 41aa6daaf7b486e514118ed2fcffca44
     Pseudo is Ultrasoft + core correction, Zval =  6.0
     Generated using "atomic" code by A. Dal Corso  v.6.1 svn rev. 13369
     Using radial grid of 1095 points,  4 beta functions with: 
                l(1) =   0
                l(2) =   0
                l(3) =   1
                l(4) =   1
     Q(r) pseudized with 0 coefficients 


     PseudoPot. # 2 for Ce read from file:
     /home/dmitry/qe/qe-6.1/pseudo/Ce.pbe-spdfn-rrkjus_psl.1.0.0.UPF
     MD5 check sum: 584ada09c8d63c147a4eb0bd2f8e9a4c
     Pseudo is Ultrasoft + core correction, Zval = 22.0
     Generated using "atomic" code by A. Dal Corso  v.6.1 svn rev. 13369
     Using radial grid of 1255 points,  8 beta functions with: 
                l(1) =   0
                l(2) =   0
                l(3) =   1
                l(4) =   1
                l(5) =   2
                l(6) =   2
                l(7) =   3
                l(8) =   3
     Q(r) pseudized with 0 coefficients 


     atomic species   valence    mass     pseudopotential
        O              6.00    15.99900      O( 1.00)
        Ce            22.00   140.12000     Ce( 1.00)


     Simplified LDA+U calculation (l_max = 1) with parameters (eV):
     atomic species    L          U    alpha       J0     beta
        O              1     4.0000   0.0000   0.0000   0.0000



     48 Sym. Ops., with inversion, found



   Cartesian axes

     site n.     atom                  positions (alat units)
         1           Ce  tau(   1) = (   0.0000000   0.0000000   0.0000000  )
         2           O   tau(   2) = (   0.2500000   0.2500000   0.2500000  )
         3           O   tau(   3) = (   0.7500000   0.7500000   0.7500000  )

     number of k points=     6
                       cart. coord. in units 2pi/alat
        k(    1) = (  -0.1666667   0.1666667   0.1666667), wk =   0.1481481
        k(    2) = (   0.5000000  -0.5000000   0.8333333), wk =   0.4444444
        k(    3) = (   0.1666667  -0.1666667   0.5000000), wk =   0.4444444
        k(    4) = (  -0.1666667  -1.1666667   0.1666667), wk =   0.4444444
        k(    5) = (  -0.5000000  -0.8333333  -0.1666667), wk =   0.4444444
        k(    6) = (   0.5000000  -0.5000000  -0.5000000), wk =   0.0740741

     Dense  grid:     1139 G-vectors     FFT dimensions: (  15,  15,  15)

     Estimated max dynamical RAM per process >       1.53MB

     G-vector sticks info
     --------------------
     sticks:   dense  smooth     PW     G-vecs:    dense   smooth      PW
     Sum         151     151     55                 1139     1139     283



     bravais-lattice index     =            2
     lattice parameter (alat)  =      10.2253  a.u.
     unit-cell volume          =     267.2811 (a.u.)^3
     number of atoms/cell      =            3
     number of atomic types    =            2
     number of electrons       =        34.00
     number of Kohn-Sham states=           17
     kinetic-energy cutoff     =      10.0000  Ry
     charge density cutoff     =      40.0000  Ry
     convergence threshold     =      1.0E-08
     mixing beta               =       0.7000
     number of iterations used =            8  plain     mixing
     Exchange-correlation      = PBE ( 1  4  3  4 0 0)

     celldm(1)=  10.225300  celldm(2)=   0.000000  celldm(3)=   0.000000
     celldm(4)=   0.000000  celldm(5)=   0.000000  celldm(6)=   0.000000

     crystal axes: (cart. coord. in units of alat)
               a(1) = (  -0.500000   0.000000   0.500000 )  
               a(2) = (   0.000000   0.500000   0.500000 )  
               a(3) = (  -0.500000   0.500000   0.000000 )  

     reciprocal axes: (cart. coord. in units 2 pi/alat)
               b(1) = ( -1.000000 -1.000000  1.000000 )  
               b(2) = (  1.000000  1.000000  1.000000 )  
               b(3) = ( -1.000000  1.000000 -1.000000 )  


     PseudoPot. # 1 for  O read from file:
     /home/dmitry/qe/qe-6.1/pseudo/O.pbe-nl-rrkjus_psl.1.0.0.UPF
     MD5 check sum: 41aa6daaf7b486e514118ed2fcffca44
     Pseudo is Ultrasoft + core correction, Zval =  6.0
     Generated using "atomic" code by A. Dal Corso  v.6.1 svn rev. 13369
     Using radial grid of 1095 points,  4 beta functions with: 
                l(1) =   0
                l(2) =   0
                l(3) =   1
                l(4) =   1
     Q(r) pseudized with 0 coefficients 


     PseudoPot. # 2 for Ce read from file:
     /home/dmitry/qe/qe-6.1/pseudo/Ce.pbe-spdfn-rrkjus_psl.1.0.0.UPF
     MD5 check sum: 584ada09c8d63c147a4eb0bd2f8e9a4c
     Pseudo is Ultrasoft + core correction, Zval = 22.0
     Generated using "atomic" code by A. Dal Corso  v.6.1 svn rev. 13369
     Using radial grid of 1255 points,  8 beta functions with: 
                l(1) =   0
                l(2) =   0
                l(3) =   1
                l(4) =   1
                l(5) =   2
                l(6) =   2
                l(7) =   3
                l(8) =   3
     Q(r) pseudized with 0 coefficients 


     atomic species   valence    mass     pseudopotential
        O              6.00    15.99900      O( 1.00)
        Ce            22.00   140.12000     Ce( 1.00)


     Simplified LDA+U calculation (l_max = 1) with parameters (eV):
     atomic species    L          U    alpha       J0     beta
        O              1     4.0000   0.0000   0.0000   0.0000



     48 Sym. Ops., with inversion, found



   Cartesian axes

     site n.     atom                  positions (alat units)
         1           Ce  tau(   1) = (   0.0000000   0.0000000   0.0000000  )
         2           O   tau(   2) = (   0.2500000   0.2500000   0.2500000  )
         3           O   tau(   3) = (   0.7500000   0.7500000   0.7500000  )

     number of k points=     6
                       cart. coord. in units 2pi/alat
        k(    1) = (  -0.1666667   0.1666667   0.1666667), wk =   0.1481481
        k(    2) = (   0.5000000  -0.5000000   0.8333333), wk =   0.4444444
        k(    3) = (   0.1666667  -0.1666667   0.5000000), wk =   0.4444444
        k(    4) = (  -0.1666667  -1.1666667   0.1666667), wk =   0.4444444
        k(    5) = (  -0.5000000  -0.8333333  -0.1666667), wk =   0.4444444
        k(    6) = (   0.5000000  -0.5000000  -0.5000000), wk =   0.0740741

     Dense  grid:     1139 G-vectors     FFT dimensions: (  15,  15,  15)

     Estimated max dynamical RAM per process >       1.53MB

     Check: negative/imaginary core charge=   -0.002930    0.000000

     Initial potential from superposition of free atoms
     Check: negative starting charge=   -0.001168

     starting charge   33.99439, renormalised to   34.00000

     negative rho (up, down):  1.168E-03 0.000E+00
     Number of +U iterations with fixed ns =  0
     Starting occupations:
 --- enter write_ns ---
 LDA+U parameters:
U( 1)     =  4.00000000
alpha( 1) =  0.00000000
atom    2   Tr[ns(na)] =   4.00000
    eigenvalues: 
  0.667  0.667  0.667
    eigenvectors:
  1.000  0.000  0.000
  0.000  1.000  0.000
  0.000  0.000  1.000
    occupations:
  0.667  0.000  0.000
  0.000  0.667  0.000
  0.000  0.000  0.667
atom    3   Tr[ns(na)] =   4.00000
    eigenvalues: 
  0.667  0.667  0.667
    eigenvectors:
  1.000  0.000  0.000
  0.000  1.000  0.000
  0.000  0.000  1.000
    occupations:
  0.667  0.000  0.000
  0.000  0.667  0.000
  0.000  0.000  0.667
N of occupied +U levels =    8.000000
 --- exit write_ns ---

     Check: negative/imaginary core charge=   -0.002930    0.000000

     Initial potential from superposition of free atoms
     Check: negative starting charge=   -0.001168

     starting charge   33.99439, renormalised to   34.00000

     negative rho (up, down):  1.168E-03 0.000E+00
     Number of +U iterations with fixed ns =  0
     Starting occupations:
 --- enter write_ns ---
 LDA+U parameters:
U( 1)     =  4.00000000
alpha( 1) =  0.00000000
atom    2   Tr[ns(na)] =   4.00000
    eigenvalues: 
  0.667  0.667  0.667
    eigenvectors:
  1.000  0.000  0.000
  0.000  1.000  0.000
  0.000  0.000  1.000
    occupations:
  0.667  0.000  0.000
  0.000  0.667  0.000
  0.000  0.000  0.667
atom    3   Tr[ns(na)] =   4.00000
    eigenvalues: 
  0.667  0.667  0.667
    eigenvectors:
  1.000  0.000  0.000
  0.000  1.000  0.000
  0.000  0.000  1.000
    occupations:
  0.667  0.000  0.000
  0.000  0.667  0.000
  0.000  0.000  0.667
N of occupied +U levels =    8.000000
 --- exit write_ns ---

     Check: negative/imaginary core charge=   -0.002930    0.000000

     Initial potential from superposition of free atoms
     Check: negative starting charge=   -0.001168

     starting charge   33.99439, renormalised to   34.00000

     negative rho (up, down):  1.168E-03 0.000E+00
     Number of +U iterations with fixed ns =  0
     Starting occupations:
 --- enter write_ns ---
 LDA+U parameters:
U( 1)     =  4.00000000
alpha( 1) =  0.00000000
atom    2   Tr[ns(na)] =   4.00000
    eigenvalues: 
  0.667  0.667  0.667
    eigenvectors:
  1.000  0.000  0.000
  0.000  1.000  0.000
  0.000  0.000  1.000
    occupations:
  0.667  0.000  0.000
  0.000  0.667  0.000
  0.000  0.000  0.667
atom    3   Tr[ns(na)] =   4.00000
    eigenvalues: 
  0.667  0.667  0.667
    eigenvectors:
  1.000  0.000  0.000
  0.000  1.000  0.000
  0.000  0.000  1.000
    occupations:
  0.667  0.000  0.000
  0.000  0.667  0.000
  0.000  0.000  0.667
N of occupied +U levels =    8.000000
 --- exit write_ns ---

     Check: negative/imaginary core charge=   -0.002930    0.000000

     Initial potential from superposition of free atoms
     Check: negative starting charge=   -0.001168

     starting charge   33.99439, renormalised to   34.00000

     negative rho (up, down):  1.168E-03 0.000E+00
     Number of +U iterations with fixed ns =  0
     Starting occupations:
 --- enter write_ns ---
 LDA+U parameters:
U( 1)     =  4.00000000
alpha( 1) =  0.00000000
atom    2   Tr[ns(na)] =   4.00000
    eigenvalues: 
  0.667  0.667  0.667
    eigenvectors:
  1.000  0.000  0.000
  0.000  1.000  0.000
  0.000  0.000  1.000
    occupations:
  0.667  0.000  0.000
  0.000  0.667  0.000
  0.000  0.000  0.667
atom    3   Tr[ns(na)] =   4.00000
    eigenvalues: 
  0.667  0.667  0.667
    eigenvectors:
  1.000  0.000  0.000
  0.000  1.000  0.000
  0.000  0.000  1.000
    occupations:
  0.667  0.000  0.000
  0.000  0.667  0.000
  0.000  0.000  0.667
N of occupied +U levels =    8.000000
 --- exit write_ns ---
 Atomic wfc used for LDA+U Projector are NOT orthogonalized
 Atomic wfc used for LDA+U Projector are NOT orthogonalized
     Starting wfc are   30 randomized atomic wfcs
     Starting wfc are   30 randomized atomic wfcs

     total cpu time spent up to now is       77.1 secs

     per-process dynamical memory:     9.6 Mb

     Self-consistent Calculation

     iteration #  1     ecut=    10.00 Ry     beta=0.70
     Davidson diagonalization with overlap

     total cpu time spent up to now is       79.2 secs

     per-process dynamical memory:     9.6 Mb

     Self-consistent Calculation

     iteration #  1     ecut=    10.00 Ry     beta=0.70
     Davidson diagonalization with overlap
 Atomic wfc used for LDA+U Projector are NOT orthogonalized
 Atomic wfc used for LDA+U Projector are NOT orthogonalized
     Starting wfc are   30 randomized atomic wfcs
     ethr =  1.00E-02,  avg # of iterations =  2.7
     ethr =  1.00E-02,  avg # of iterations =  2.7
     Starting wfc are   30 randomized atomic wfcs

     total cpu time spent up to now is      110.1 secs

     per-process dynamical memory:     9.6 Mb

     Self-consistent Calculation

     iteration #  1     ecut=    10.00 Ry     beta=0.70
     Davidson diagonalization with overlap

     total cpu time spent up to now is      114.4 secs

     per-process dynamical memory:     9.6 Mb

     Self-consistent Calculation

     iteration #  1     ecut=    10.00 Ry     beta=0.70
     Davidson diagonalization with overlap
     ethr =  1.00E-02,  avg # of iterations =  2.7
     ethr =  1.00E-02,  avg # of iterations =  2.7
 --- enter write_ns ---
 LDA+U parameters:
U( 1)     =  4.00000000
alpha( 1) =  0.00000000
atom    2   Tr[ns(na)] =   4.64451
    eigenvalues: 
  0.774  0.774  0.774
    eigenvectors:
  0.409  0.252  0.339
  0.443  0.000  0.556
  0.148  0.747  0.105
    occupations:
  0.774 -0.000  0.000
 -0.000  0.774 -0.000
  0.000 -0.000  0.774
atom    3   Tr[ns(na)] =   4.64451
    eigenvalues: 
  0.774  0.774  0.774
    eigenvectors:
  0.149  0.354  0.497
  0.750  0.001  0.249
  0.102  0.645  0.253
    occupations:
  0.774 -0.000  0.000
 -0.000  0.774 -0.000
  0.000 -0.000  0.774
N of occupied +U levels =    9.289017
 --- exit write_ns ---
 --- enter write_ns ---
 LDA+U parameters:
U( 1)     =  4.00000000
alpha( 1) =  0.00000000
atom    2   Tr[ns(na)] =   4.64451
    eigenvalues: 
  0.774  0.774  0.774
    eigenvectors:
  0.409  0.252  0.339
  0.443  0.000  0.556
  0.148  0.747  0.105
    occupations:
  0.774 -0.000  0.000
 -0.000  0.774 -0.000
  0.000 -0.000  0.774
atom    3   Tr[ns(na)] =   4.64451
    eigenvalues: 
  0.774  0.774  0.774
    eigenvectors:
  0.149  0.354  0.497
  0.750  0.001  0.249
  0.102  0.645  0.253
    occupations:
  0.774 -0.000  0.000
 -0.000  0.774 -0.000
  0.000 -0.000  0.774
N of occupied +U levels =    9.289017
 --- exit write_ns ---

     total cpu time spent up to now is      180.3 secs

     total energy              =    -379.48878408 Ry
     Harris-Foulkes estimate   =    -425.31850452 Ry
     estimated scf accuracy    <      55.02963679 Ry

     iteration #  2     ecut=    10.00 Ry     beta=0.70
     Davidson diagonalization with overlap
 --- enter write_ns ---
 LDA+U parameters:
U( 1)     =  4.00000000
alpha( 1) =  0.00000000
atom    2   Tr[ns(na)] =   4.64451
    eigenvalues: 
  0.774  0.774  0.774
    eigenvectors:
  0.409  0.252  0.339
  0.443  0.000  0.556
  0.148  0.747  0.105
    occupations:
  0.774 -0.000  0.000
 -0.000  0.774 -0.000
  0.000 -0.000  0.774
atom    3   Tr[ns(na)] =   4.64451
    eigenvalues: 
  0.774  0.774  0.774
    eigenvectors:
  0.149  0.354  0.497
  0.750  0.001  0.249
  0.102  0.645  0.253
    occupations:
  0.774 -0.000  0.000
 -0.000  0.774 -0.000
  0.000 -0.000  0.774
N of occupied +U levels =    9.289017
 --- exit write_ns ---
 --- enter write_ns ---
 LDA+U parameters:
U( 1)     =  4.00000000
alpha( 1) =  0.00000000
atom    2   Tr[ns(na)] =   4.64451
    eigenvalues: 
  0.774  0.774  0.774
    eigenvectors:
  0.409  0.252  0.339
  0.443  0.000  0.556
  0.148  0.747  0.105
    occupations:
  0.774 -0.000  0.000
 -0.000  0.774 -0.000
  0.000 -0.000  0.774
atom    3   Tr[ns(na)] =   4.64451
    eigenvalues: 
  0.774  0.774  0.774
    eigenvectors:
  0.149  0.354  0.497
  0.750  0.001  0.249
  0.102  0.645  0.253
    occupations:
  0.774 -0.000  0.000
 -0.000  0.774 -0.000
  0.000 -0.000  0.774
N of occupied +U levels =    9.289017
 --- exit write_ns ---
     ethr =  1.00E-02,  avg # of iterations =  3.0

     total cpu time spent up to now is      209.7 secs

     total energy              =    -379.48878408 Ry
     Harris-Foulkes estimate   =    -425.31850452 Ry
     estimated scf accuracy    <      55.02963679 Ry

     iteration #  2     ecut=    10.00 Ry     beta=0.70
     Davidson diagonalization with overlap

     total cpu time spent up to now is      220.7 secs

     total energy              =    -379.48878408 Ry
     Harris-Foulkes estimate   =    -425.31850452 Ry
     estimated scf accuracy    <      55.02963679 Ry

     iteration #  2     ecut=    10.00 Ry     beta=0.70
     Davidson diagonalization with overlap
     ethr =  1.00E-02,  avg # of iterations =  3.0

     total cpu time spent up to now is      236.5 secs

     total energy              =    -379.48878408 Ry
     Harris-Foulkes estimate   =    -425.31850452 Ry
     estimated scf accuracy    <      55.02963679 Ry

     iteration #  2     ecut=    10.00 Ry     beta=0.70
     Davidson diagonalization with overlap
     ethr =  1.00E-02,  avg # of iterations =  3.0

     negative rho (up, down):  3.249E-01 0.000E+00
     ethr =  1.00E-02,  avg # of iterations =  3.0

     negative rho (up, down):  3.249E-01 0.000E+00

     total cpu time spent up to now is      287.9 secs

     total energy              =    -387.93223474 Ry
     Harris-Foulkes estimate   =    -388.73088649 Ry
     estimated scf accuracy    <       1.51281045 Ry

     iteration #  3     ecut=    10.00 Ry     beta=0.70
     Davidson diagonalization with overlap

     total cpu time spent up to now is      299.8 secs

     total energy              =    -387.93223474 Ry
     Harris-Foulkes estimate   =    -388.73088649 Ry
     estimated scf accuracy    <       1.51281045 Ry

     iteration #  3     ecut=    10.00 Ry     beta=0.70
     Davidson diagonalization with overlap
     ethr =  4.45E-03,  avg # of iterations =  2.0

     negative rho (up, down):  3.249E-01 0.000E+00

     negative rho (up, down):  3.249E-01 0.000E+00
     ethr =  4.45E-03,  avg # of iterations =  2.0

     total cpu time spent up to now is      340.9 secs

     total energy              =    -387.93223474 Ry
     Harris-Foulkes estimate   =    -388.73088649 Ry
     estimated scf accuracy    <       1.51281045 Ry

     iteration #  3     ecut=    10.00 Ry     beta=0.70
     Davidson diagonalization with overlap

     total cpu time spent up to now is      355.3 secs

     total energy              =    -387.93223474 Ry
     Harris-Foulkes estimate   =    -388.73088649 Ry
     estimated scf accuracy    <       1.51281045 Ry

     iteration #  3     ecut=    10.00 Ry     beta=0.70
     Davidson diagonalization with overlap
     ethr =  4.45E-03,  avg # of iterations =  2.0

     negative rho (up, down):  5.258E-01 0.000E+00
     ethr =  4.45E-03,  avg # of iterations =  2.0

     negative rho (up, down):  5.258E-01 0.000E+00

     total cpu time spent up to now is      408.3 secs

     total energy              =    -387.98889695 Ry
     Harris-Foulkes estimate   =    -388.03100865 Ry
     estimated scf accuracy    <       0.08184191 Ry

     iteration #  4     ecut=    10.00 Ry     beta=0.70
     Davidson diagonalization with overlap

     negative rho (up, down):  5.258E-01 0.000E+00
     ethr =  2.41E-04,  avg # of iterations =  2.0

     total cpu time spent up to now is      425.6 secs

     total energy              =    -387.98889695 Ry
     Harris-Foulkes estimate   =    -388.03100865 Ry
     estimated scf accuracy    <       0.08184191 Ry

     iteration #  4     ecut=    10.00 Ry     beta=0.70
     Davidson diagonalization with overlap

     negative rho (up, down):  5.258E-01 0.000E+00

     total cpu time spent up to now is      433.2 secs

     total energy              =    -387.98889695 Ry
     Harris-Foulkes estimate   =    -388.03100865 Ry
     estimated scf accuracy    <       0.08184191 Ry

     iteration #  4     ecut=    10.00 Ry     beta=0.70
     Davidson diagonalization with overlap
     ethr =  2.41E-04,  avg # of iterations =  2.0
     ethr =  2.41E-04,  avg # of iterations =  2.0

     total cpu time spent up to now is      453.7 secs

     total energy              =    -387.98889695 Ry
     Harris-Foulkes estimate   =    -388.03100865 Ry
     estimated scf accuracy    <       0.08184191 Ry

     iteration #  4     ecut=    10.00 Ry     beta=0.70
     Davidson diagonalization with overlap
     ethr =  2.41E-04,  avg # of iterations =  2.0

     negative rho (up, down):  5.429E-01 0.000E+00

     negative rho (up, down):  5.429E-01 0.000E+00

     negative rho (up, down):  5.429E-01 0.000E+00

     total cpu time spent up to now is      518.9 secs

     total energy              =    -387.99336399 Ry
     Harris-Foulkes estimate   =    -387.99738627 Ry
     estimated scf accuracy    <       0.00338812 Ry

     iteration #  5     ecut=    10.00 Ry     beta=0.70
     Davidson diagonalization with overlap

     negative rho (up, down):  5.429E-01 0.000E+00
     ethr =  9.97E-06,  avg # of iterations =  2.2

     total cpu time spent up to now is      552.0 secs

     total energy              =    -387.99336399 Ry
     Harris-Foulkes estimate   =    -387.99738627 Ry
     estimated scf accuracy    <       0.00338812 Ry

     iteration #  5     ecut=    10.00 Ry     beta=0.70
     Davidson diagonalization with overlap

     total cpu time spent up to now is      553.2 secs

     total energy              =    -387.99336399 Ry
     Harris-Foulkes estimate   =    -387.99738627 Ry
     estimated scf accuracy    <       0.00338812 Ry

     iteration #  5     ecut=    10.00 Ry     beta=0.70
     Davidson diagonalization with overlap

     total cpu time spent up to now is      562.6 secs

     total energy              =    -387.99336399 Ry
     Harris-Foulkes estimate   =    -387.99738627 Ry
     estimated scf accuracy    <       0.00338812 Ry

     iteration #  5     ecut=    10.00 Ry     beta=0.70
     Davidson diagonalization with overlap
     ethr =  9.97E-06,  avg # of iterations =  2.2
     ethr =  9.97E-06,  avg # of iterations =  2.2
     ethr =  9.97E-06,  avg # of iterations =  2.2

     negative rho (up, down):  5.519E-01 0.000E+00

     negative rho (up, down):  5.519E-01 0.000E+00

     negative rho (up, down):  5.519E-01 0.000E+00

     total cpu time spent up to now is      639.0 secs

     total energy              =    -387.99310474 Ry
     Harris-Foulkes estimate   =    -387.99405432 Ry
     estimated scf accuracy    <       0.00025392 Ry

     iteration #  6     ecut=    10.00 Ry     beta=0.70
     Davidson diagonalization with overlap

     total cpu time spent up to now is      646.9 secs

     total energy              =    -387.99310474 Ry
     Harris-Foulkes estimate   =    -387.99405432 Ry
     estimated scf accuracy    <       0.00025392 Ry

     iteration #  6     ecut=    10.00 Ry     beta=0.70
     Davidson diagonalization with overlap

     negative rho (up, down):  5.519E-01 0.000E+00
     ethr =  7.47E-07,  avg # of iterations =  2.3

     total cpu time spent up to now is      661.2 secs

     total energy              =    -387.99310474 Ry
     Harris-Foulkes estimate   =    -387.99405432 Ry
     estimated scf accuracy    <       0.00025392 Ry

     iteration #  6     ecut=    10.00 Ry     beta=0.70
     Davidson diagonalization with overlap
     ethr =  7.47E-07,  avg # of iterations =  2.3
     ethr =  7.47E-07,  avg # of iterations =  2.3

     total cpu time spent up to now is      693.2 secs

     total energy              =    -387.99310474 Ry
     Harris-Foulkes estimate   =    -387.99405432 Ry
     estimated scf accuracy    <       0.00025392 Ry

     iteration #  6     ecut=    10.00 Ry     beta=0.70
     Davidson diagonalization with overlap

     negative rho (up, down):  5.521E-01 0.000E+00
     ethr =  7.47E-07,  avg # of iterations =  2.3

     total cpu time spent up to now is      731.3 secs

     total energy              =    -387.99304069 Ry
     Harris-Foulkes estimate   =    -387.99316247 Ry
     estimated scf accuracy    <       0.00000674 Ry

     iteration #  7     ecut=    10.00 Ry     beta=0.70
     Davidson diagonalization with overlap

     negative rho (up, down):  5.521E-01 0.000E+00

     negative rho (up, down):  5.521E-01 0.000E+00
     ethr =  1.98E-08,  avg # of iterations =  2.3

     negative rho (up, down):  5.521E-01 0.000E+00

     total cpu time spent up to now is      779.3 secs

     total energy              =    -387.99304069 Ry
     Harris-Foulkes estimate   =    -387.99316247 Ry
     estimated scf accuracy    <       0.00000674 Ry

     iteration #  7     ecut=    10.00 Ry     beta=0.70
     Davidson diagonalization with overlap

     total cpu time spent up to now is      796.8 secs

     total energy              =    -387.99304069 Ry
     Harris-Foulkes estimate   =    -387.99316247 Ry
     estimated scf accuracy    <       0.00000674 Ry

     iteration #  7     ecut=    10.00 Ry     beta=0.70
     Davidson diagonalization with overlap
     ethr =  1.98E-08,  avg # of iterations =  2.3

     total cpu time spent up to now is      806.8 secs

     total energy              =    -387.99304069 Ry
     Harris-Foulkes estimate   =    -387.99316247 Ry
     estimated scf accuracy    <       0.00000674 Ry

     iteration #  7     ecut=    10.00 Ry     beta=0.70
     Davidson diagonalization with overlap
     ethr =  1.98E-08,  avg # of iterations =  2.3

     negative rho (up, down):  5.523E-01 0.000E+00
     ethr =  1.98E-08,  avg # of iterations =  2.3

     negative rho (up, down):  5.523E-01 0.000E+00

     total cpu time spent up to now is      839.4 secs

     total energy              =    -387.99303820 Ry
     Harris-Foulkes estimate   =    -387.99304230 Ry
     estimated scf accuracy    <       0.00000007 Ry

     iteration #  8     ecut=    10.00 Ry     beta=0.70
     Davidson diagonalization with overlap

     total cpu time spent up to now is      856.3 secs

     total energy              =    -387.99303820 Ry
     Harris-Foulkes estimate   =    -387.99304230 Ry
     estimated scf accuracy    <       0.00000007 Ry

     iteration #  8     ecut=    10.00 Ry     beta=0.70
     Davidson diagonalization with overlap
     ethr =  1.99E-10,  avg # of iterations =  3.0

     negative rho (up, down):  5.523E-01 0.000E+00

     negative rho (up, down):  5.523E-01 0.000E+00
     ethr =  1.99E-10,  avg # of iterations =  3.0

     total cpu time spent up to now is      911.9 secs

     total energy              =    -387.99303820 Ry
     Harris-Foulkes estimate   =    -387.99304230 Ry
     estimated scf accuracy    <       0.00000007 Ry

     iteration #  8     ecut=    10.00 Ry     beta=0.70
     Davidson diagonalization with overlap

     negative rho (up, down):  5.522E-01 0.000E+00

     total cpu time spent up to now is      920.4 secs

     total energy              =    -387.99303820 Ry
     Harris-Foulkes estimate   =    -387.99304230 Ry
     estimated scf accuracy    <       0.00000007 Ry

     iteration #  8     ecut=    10.00 Ry     beta=0.70
     Davidson diagonalization with overlap
     ethr =  1.99E-10,  avg # of iterations =  3.0
     ethr =  1.99E-10,  avg # of iterations =  3.0

     negative rho (up, down):  5.522E-01 0.000E+00

     total cpu time spent up to now is      966.0 secs

     End of self-consistent calculation
 --- enter write_ns ---
 LDA+U parameters:
U( 1)     =  4.00000000
alpha( 1) =  0.00000000
atom    2   Tr[ns(na)] =   4.52545
    eigenvalues: 
  0.754  0.754  0.754
    eigenvectors:
  0.589  0.115  0.296
  0.376  0.020  0.604
  0.035  0.865  0.101
    occupations:
  0.754 -0.000  0.000
 -0.000  0.754 -0.000
  0.000 -0.000  0.754
atom    3   Tr[ns(na)] =   4.52545
    eigenvalues: 
  0.754  0.754  0.754
    eigenvectors:
  0.377  0.227  0.396
  0.570  0.015  0.415
  0.053  0.758  0.188
    occupations:
  0.754 -0.000  0.000
 -0.000  0.754 -0.000
  0.000 -0.000  0.754
N of occupied +U levels =    9.050903
 --- exit write_ns ---

          k =-0.1667 0.1667 0.1667 (   150 PWs)   bands (ev):

   -83.5379 -34.5691 -34.5691 -32.9422 -20.5176 -20.5176 -17.8874 -17.8874
   -17.0757  -7.9133  -6.2231  11.3658  14.1454  14.1454  14.2925  14.6327
    14.6327

          k = 0.5000-0.5000 0.8333 (   141 PWs)   bands (ev):

   -82.2559 -33.0295 -32.7592 -31.7937 -17.4552 -16.8859 -14.9359 -14.2597
   -13.0382  -6.8262  -5.9733   9.2902  13.4325  13.8352  14.5725  16.4804
    16.5732

          k = 0.1667-0.1667 0.5000 (   143 PWs)   bands (ev):

   -82.5990 -33.3810 -32.8839 -32.4863 -18.1806 -16.7202 -16.3225 -15.4825
   -13.9055  -7.4737  -6.0163   9.6918  13.3999  13.8103  15.3754  15.6177
    16.3800

          k =-0.1667-1.1667 0.1667 (   139 PWs)   bands (ev):

   -81.9026 -32.7090 -32.0917 -31.3553 -17.0672 -15.9681 -14.5681 -12.4468
   -11.8681  -6.7052  -5.9426   8.6918  12.7916  13.2747  15.9517  16.8814
    17.8740

          k =-0.5000-0.8333-0.1667 (   142 PWs)   bands (ev):

   -82.3287 -33.8022 -32.3362 -32.1011 -17.7391 -16.4196 -15.9804 -13.7023
   -13.4929  -6.3324  -6.3022   8.4471  12.6330  14.0227  14.1993  16.4155
    17.8562

          k = 0.5000-0.5000-0.5000 (   138 PWs)   bands (ev):

   -82.1053 -33.2867 -33.2867 -29.5523 -18.7283 -18.7283 -12.5436 -11.1285
   -11.1285  -6.5738  -4.8716   9.7660  14.0847  14.0847  14.1040  15.3446
    15.3446

     highest occupied level (ev):    17.8740

!    total energy              =    -387.99303860 Ry
     Harris-Foulkes estimate   =    -387.99303823 Ry
     estimated scf accuracy    <          2.2E-09 Ry

     The total energy is the sum of the following terms:

     one-electron contribution =     -92.07054258 Ry
     hartree contribution      =      60.39895027 Ry
     xc contribution           =     -58.26438209 Ry
     ewald contribution        =    -298.38403509 Ry
     Hubbard energy            =       0.32697089 Ry

     convergence has been achieved in   8 iterations

     negative rho (up, down):  5.522E-01 0.000E+00

     total cpu time spent up to now is      991.7 secs

     End of self-consistent calculation
 --- enter write_ns ---
 LDA+U parameters:
U( 1)     =  4.00000000
alpha( 1) =  0.00000000
atom    2   Tr[ns(na)] =   4.52545
    eigenvalues: 
  0.754  0.754  0.754
    eigenvectors:
  0.589  0.115  0.296
  0.376  0.020  0.604
  0.035  0.865  0.101
    occupations:
  0.754 -0.000  0.000
 -0.000  0.754 -0.000
  0.000 -0.000  0.754
atom    3   Tr[ns(na)] =   4.52545
    eigenvalues: 
  0.754  0.754  0.754
    eigenvectors:
  0.377  0.227  0.396
  0.570  0.015  0.415
  0.053  0.758  0.188
    occupations:
  0.754 -0.000  0.000
 -0.000  0.754 -0.000
  0.000 -0.000  0.754
N of occupied +U levels =    9.050903
 --- exit write_ns ---

          k =-0.1667 0.1667 0.1667 (   150 PWs)   bands (ev):

   -83.5379 -34.5691 -34.5691 -32.9422 -20.5176 -20.5176 -17.8874 -17.8874
   -17.0757  -7.9133  -6.2231  11.3658  14.1454  14.1454  14.2925  14.6327
    14.6327

          k = 0.5000-0.5000 0.8333 (   141 PWs)   bands (ev):

   -82.2559 -33.0295 -32.7592 -31.7937 -17.4552 -16.8859 -14.9359 -14.2597
   -13.0382  -6.8262  -5.9733   9.2902  13.4325  13.8352  14.5725  16.4804
    16.5732

          k = 0.1667-0.1667 0.5000 (   143 PWs)   bands (ev):

   -82.5990 -33.3810 -32.8839 -32.4863 -18.1806 -16.7202 -16.3225 -15.4825
   -13.9055  -7.4737  -6.0163   9.6918  13.3999  13.8103  15.3754  15.6177
    16.3800

          k =-0.1667-1.1667 0.1667 (   139 PWs)   bands (ev):

   -81.9026 -32.7090 -32.0917 -31.3553 -17.0672 -15.9681 -14.5681 -12.4468
   -11.8681  -6.7052  -5.9426   8.6918  12.7916  13.2747  15.9517  16.8814
    17.8740

          k =-0.5000-0.8333-0.1667 (   142 PWs)   bands (ev):

   -82.3287 -33.8022 -32.3362 -32.1011 -17.7391 -16.4196 -15.9804 -13.7023
   -13.4929  -6.3324  -6.3022   8.4471  12.6330  14.0227  14.1993  16.4155
    17.8562

          k = 0.5000-0.5000-0.5000 (   138 PWs)   bands (ev):

   -82.1053 -33.2867 -33.2867 -29.5523 -18.7283 -18.7283 -12.5436 -11.1285
   -11.1285  -6.5738  -4.8716   9.7660  14.0847  14.0847  14.1040  15.3446
    15.3446

     highest occupied level (ev):    17.8740

!    total energy              =    -387.99303860 Ry
     Harris-Foulkes estimate   =    -387.99303823 Ry
     estimated scf accuracy    <          2.2E-09 Ry

     The total energy is the sum of the following terms:

     one-electron contribution =     -92.07054258 Ry
     hartree contribution      =      60.39895027 Ry
     xc contribution           =     -58.26438209 Ry
     ewald contribution        =    -298.38403509 Ry
     Hubbard energy            =       0.32697089 Ry

     convergence has been achieved in   8 iterations

     negative rho (up, down):  5.522E-01 0.000E+00

     total cpu time spent up to now is     1019.3 secs

     End of self-consistent calculation
 --- enter write_ns ---
 LDA+U parameters:
U( 1)     =  4.00000000
alpha( 1) =  0.00000000
atom    2   Tr[ns(na)] =   4.52545
    eigenvalues: 
  0.754  0.754  0.754
    eigenvectors:
  0.589  0.115  0.296
  0.376  0.020  0.604
  0.035  0.865  0.101
    occupations:
  0.754 -0.000  0.000
 -0.000  0.754 -0.000
  0.000 -0.000  0.754
atom    3   Tr[ns(na)] =   4.52545
    eigenvalues: 
  0.754  0.754  0.754
    eigenvectors:
  0.377  0.227  0.396
  0.570  0.015  0.415
  0.053  0.758  0.188
    occupations:
  0.754 -0.000  0.000
 -0.000  0.754 -0.000
  0.000 -0.000  0.754
N of occupied +U levels =    9.050903
 --- exit write_ns ---

          k =-0.1667 0.1667 0.1667 (   150 PWs)   bands (ev):

   -83.5379 -34.5691 -34.5691 -32.9422 -20.5176 -20.5176 -17.8874 -17.8874
   -17.0757  -7.9133  -6.2231  11.3658  14.1454  14.1454  14.2925  14.6327
    14.6327

          k = 0.5000-0.5000 0.8333 (   141 PWs)   bands (ev):

   -82.2559 -33.0295 -32.7592 -31.7937 -17.4552 -16.8859 -14.9359 -14.2597
   -13.0382  -6.8262  -5.9733   9.2902  13.4325  13.8352  14.5725  16.4804
    16.5732

          k = 0.1667-0.1667 0.5000 (   143 PWs)   bands (ev):

   -82.5990 -33.3810 -32.8839 -32.4863 -18.1806 -16.7202 -16.3225 -15.4825
   -13.9055  -7.4737  -6.0163   9.6918  13.3999  13.8103  15.3754  15.6177
    16.3800

          k =-0.1667-1.1667 0.1667 (   139 PWs)   bands (ev):

   -81.9026 -32.7090 -32.0917 -31.3553 -17.0672 -15.9681 -14.5681 -12.4468
   -11.8681  -6.7052  -5.9426   8.6918  12.7916  13.2747  15.9517  16.8814
    17.8740

          k =-0.5000-0.8333-0.1667 (   142 PWs)   bands (ev):

   -82.3287 -33.8022 -32.3362 -32.1011 -17.7391 -16.4196 -15.9804 -13.7023
   -13.4929  -6.3324  -6.3022   8.4471  12.6330  14.0227  14.1993  16.4155
    17.8562

          k = 0.5000-0.5000-0.5000 (   138 PWs)   bands (ev):

   -82.1053 -33.2867 -33.2867 -29.5523 -18.7283 -18.7283 -12.5436 -11.1285
   -11.1285  -6.5738  -4.8716   9.7660  14.0847  14.0847  14.1040  15.3446
    15.3446

     highest occupied level (ev):    17.8740

!    total energy              =    -387.99303860 Ry
     Harris-Foulkes estimate   =    -387.99303823 Ry
     estimated scf accuracy    <          2.2E-09 Ry

     The total energy is the sum of the following terms:

     one-electron contribution =     -92.07054258 Ry
     hartree contribution      =      60.39895027 Ry
     xc contribution           =     -58.26438209 Ry
     ewald contribution        =    -298.38403509 Ry
     Hubbard energy            =       0.32697089 Ry

     convergence has been achieved in   8 iterations

     total cpu time spent up to now is     1036.8 secs

     End of self-consistent calculation
 --- enter write_ns ---
 LDA+U parameters:
U( 1)     =  4.00000000
alpha( 1) =  0.00000000
atom    2   Tr[ns(na)] =   4.52545
    eigenvalues: 
  0.754  0.754  0.754
    eigenvectors:
  0.589  0.115  0.296
  0.376  0.020  0.604
  0.035  0.865  0.101
    occupations:
  0.754 -0.000  0.000
 -0.000  0.754 -0.000
  0.000 -0.000  0.754
atom    3   Tr[ns(na)] =   4.52545
    eigenvalues: 
  0.754  0.754  0.754
    eigenvectors:
  0.377  0.227  0.396
  0.570  0.015  0.415
  0.053  0.758  0.188
    occupations:
  0.754 -0.000  0.000
 -0.000  0.754 -0.000
  0.000 -0.000  0.754
N of occupied +U levels =    9.050903
 --- exit write_ns ---

          k =-0.1667 0.1667 0.1667 (   150 PWs)   bands (ev):

   -83.5379 -34.5691 -34.5691 -32.9422 -20.5176 -20.5176 -17.8874 -17.8874
   -17.0757  -7.9133  -6.2231  11.3658  14.1454  14.1454  14.2925  14.6327
    14.6327

          k = 0.5000-0.5000 0.8333 (   141 PWs)   bands (ev):

   -82.2559 -33.0295 -32.7592 -31.7937 -17.4552 -16.8859 -14.9359 -14.2597
   -13.0382  -6.8262  -5.9733   9.2902  13.4325  13.8352  14.5725  16.4804
    16.5732

          k = 0.1667-0.1667 0.5000 (   143 PWs)   bands (ev):

   -82.5990 -33.3810 -32.8839 -32.4863 -18.1806 -16.7202 -16.3225 -15.4825
   -13.9055  -7.4737  -6.0163   9.6918  13.3999  13.8103  15.3754  15.6177
    16.3800

          k =-0.1667-1.1667 0.1667 (   139 PWs)   bands (ev):

   -81.9026 -32.7090 -32.0917 -31.3553 -17.0672 -15.9681 -14.5681 -12.4468
   -11.8681  -6.7052  -5.9426   8.6918  12.7916  13.2747  15.9517  16.8814
    17.8740

          k =-0.5000-0.8333-0.1667 (   142 PWs)   bands (ev):

   -82.3287 -33.8022 -32.3362 -32.1011 -17.7391 -16.4196 -15.9804 -13.7023
   -13.4929  -6.3324  -6.3022   8.4471  12.6330  14.0227  14.1993  16.4155
    17.8562

          k = 0.5000-0.5000-0.5000 (   138 PWs)   bands (ev):

   -82.1053 -33.2867 -33.2867 -29.5523 -18.7283 -18.7283 -12.5436 -11.1285
   -11.1285  -6.5738  -4.8716   9.7660  14.0847  14.0847  14.1040  15.3446
    15.3446

     highest occupied level (ev):    17.8740

!    total energy              =    -387.99303860 Ry
     Harris-Foulkes estimate   =    -387.99303823 Ry
     estimated scf accuracy    <          2.2E-09 Ry

     The total energy is the sum of the following terms:

     one-electron contribution =     -92.07054258 Ry
     hartree contribution      =      60.39895027 Ry
     xc contribution           =     -58.26438209 Ry
     ewald contribution        =    -298.38403509 Ry
     Hubbard energy            =       0.32697089 Ry

     convergence has been achieved in   8 iterations

     negative rho (up, down):  5.522E-01 0.000E+00

     Forces acting on atoms (cartesian axes, Ry/au):

     atom    1 type  2   force =     0.00000000    0.00000000    0.00000000
     atom    2 type  1   force =     0.00000000    0.00000000    0.00000000
     atom    3 type  1   force =    -0.00000000   -0.00000000    0.00000000

     Total force =     0.000000     Total SCF correction =     0.000000


     Computing stress (Cartesian axis) and pressure


     negative rho (up, down):  5.522E-01 0.000E+00

     negative rho (up, down):  5.522E-01 0.000E+00

     Forces acting on atoms (cartesian axes, Ry/au):

     atom    1 type  2   force =     0.00000000    0.00000000    0.00000000
     atom    2 type  1   force =     0.00000000    0.00000000    0.00000000
     atom    3 type  1   force =    -0.00000000   -0.00000000    0.00000000

     Total force =     0.000000     Total SCF correction =     0.000000


     Computing stress (Cartesian axis) and pressure


     negative rho (up, down):  5.522E-01 0.000E+00

     negative rho (up, down):  5.522E-01 0.000E+00

     Forces acting on atoms (cartesian axes, Ry/au):

     atom    1 type  2   force =     0.00000000    0.00000000    0.00000000
     atom    2 type  1   force =     0.00000000    0.00000000    0.00000000
     atom    3 type  1   force =    -0.00000000   -0.00000000    0.00000000

     Total force =     0.000000     Total SCF correction =     0.000000


     Computing stress (Cartesian axis) and pressure


     negative rho (up, down):  5.522E-01 0.000E+00

     negative rho (up, down):  5.522E-01 0.000E+00

     Forces acting on atoms (cartesian axes, Ry/au):

     atom    1 type  2   force =     0.00000000    0.00000000    0.00000000
     atom    2 type  1   force =     0.00000000    0.00000000    0.00000000
     atom    3 type  1   force =    -0.00000000   -0.00000000    0.00000000

     Total force =     0.000000     Total SCF correction =     0.000000


     Computing stress (Cartesian axis) and pressure


     negative rho (up, down):  5.522E-01 0.000E+00
          total   stress  (Ry/bohr**3)                   (kbar)     P=********
  -0.21086026   0.00000000   0.00000000     -31018.61      0.00      0.00
   0.00000000  -0.21086026  -0.00000000          0.00 -31018.61     -0.00
   0.00000000  -0.00000000  -0.21086026          0.00     -0.00 -31018.61


     Writing output data file cerium.save

     init_run     :     85.85s CPU     91.01s WALL (       1 calls)
     electrons    :    774.12s CPU    877.31s WALL (       1 calls)
     forces       :     68.87s CPU     90.57s WALL (       1 calls)
     stress       :    436.78s CPU    537.75s WALL (       1 calls)

     Called by init_run:
     wfcinit      :     20.50s CPU     21.48s WALL (       1 calls)
     potinit      :      0.07s CPU      0.07s WALL (       1 calls)

     Called by electrons:
     c_bands      :    132.82s CPU    148.33s WALL (       8 calls)
     sum_band     :    377.92s CPU    423.53s WALL (       8 calls)
     v_of_rho     :      0.49s CPU      0.53s WALL (       9 calls)
     newd         :    303.64s CPU    347.32s WALL (       9 calls)
     mix_rho      :      0.01s CPU      0.00s WALL (       8 calls)

     Called by c_bands:
     init_us_2    :     63.24s CPU     72.06s WALL (     180 calls)
     cegterg      :    114.84s CPU    128.77s WALL (      48 calls)

     Called by sum_band:
     sum_band:bec :      3.97s CPU      4.44s WALL (      48 calls)
     addusdens    :    333.48s CPU    373.02s WALL (       8 calls)

     Called by *egterg:
     h_psi        :    123.87s CPU    138.25s WALL (     171 calls)
     s_psi        :      0.32s CPU      0.37s WALL (     237 calls)
     g_psi        :      0.02s CPU      0.03s WALL (     117 calls)
     cdiaghg      :      0.70s CPU      0.74s WALL (     165 calls)

     Called by h_psi:
     h_psi:pot    :    123.82s CPU    138.19s WALL (     171 calls)
     h_psi:calbec :      0.08s CPU      0.09s WALL (     171 calls)
     vloc_psi     :    123.50s CPU    137.95s WALL (     171 calls)
     add_vuspsi   :      0.22s CPU      0.14s WALL (     171 calls)
     vhpsi        :      0.05s CPU      0.05s WALL (     171 calls)

     General routines
     calbec       :      0.46s CPU      0.53s WALL (    1296 calls)
     fft          :      0.05s CPU      0.05s WALL (     141 calls)
     fftw         :      0.86s CPU      0.72s WALL (    5330 calls)
     davcio       :      0.00s CPU      0.03s WALL (      12 calls)


     Hubbard U routines
     new_ns       :      0.01s CPU      0.01s WALL (       8 calls)
     vhpsi        :      0.05s CPU      0.05s WALL (     171 calls)
     force_hub    :      4.67s CPU      5.92s WALL (       1 calls)
     stres_hub    :    272.70s CPU    331.24s WALL (       1 calls)

     PWSCF        : 23m 6.12s CPU    27m 0.65s WALL


   This run was terminated on:  21:15:24  14May2018            

=------------------------------------------------------------------------------=
   JOB DONE.
=------------------------------------------------------------------------------=
          total   stress  (Ry/bohr**3)                   (kbar)     P=********
  -0.21086026   0.00000000   0.00000000     -31018.61      0.00      0.00
   0.00000000  -0.21086026  -0.00000000          0.00 -31018.61     -0.00
   0.00000000  -0.00000000  -0.21086026          0.00     -0.00 -31018.61


     Writing output data file cerium.save

     init_run     :     65.22s CPU     70.97s WALL (       1 calls)
     electrons    :    789.86s CPU    888.96s WALL (       1 calls)
     forces       :     66.00s CPU     84.75s WALL (       1 calls)
     stress       :    463.31s CPU    571.52s WALL (       1 calls)

     Called by init_run:
     wfcinit      :     19.49s CPU     20.14s WALL (       1 calls)
     potinit      :      0.08s CPU      0.10s WALL (       1 calls)

     Called by electrons:
     c_bands      :    132.71s CPU    148.24s WALL (       8 calls)
     sum_band     :    383.90s CPU    426.89s WALL (       8 calls)
     v_of_rho     :      0.42s CPU      0.46s WALL (       9 calls)
     newd         :    306.83s CPU    345.97s WALL (       9 calls)
     mix_rho      :      0.02s CPU      0.01s WALL (       8 calls)

     Called by c_bands:
     init_us_2    :     64.51s CPU     76.09s WALL (     180 calls)
     cegterg      :    114.63s CPU    127.97s WALL (      48 calls)

     Called by sum_band:
     sum_band:bec :      4.09s CPU      4.65s WALL (      48 calls)
     addusdens    :    339.41s CPU    376.48s WALL (       8 calls)

     Called by *egterg:
     h_psi        :    123.50s CPU    136.99s WALL (     171 calls)
     s_psi        :      0.28s CPU      0.30s WALL (     237 calls)
     g_psi        :      0.00s CPU      0.00s WALL (     117 calls)
     cdiaghg      :      0.52s CPU      0.67s WALL (     165 calls)

     Called by h_psi:
     h_psi:pot    :    123.48s CPU    136.96s WALL (     171 calls)
     h_psi:calbec :      0.10s CPU      0.10s WALL (     171 calls)
     vloc_psi     :    123.18s CPU    136.68s WALL (     171 calls)
     add_vuspsi   :      0.20s CPU      0.17s WALL (     171 calls)
     vhpsi        :      0.02s CPU      0.03s WALL (     171 calls)

     General routines
     calbec       :      0.48s CPU      0.57s WALL (    1296 calls)
     fft          :      0.08s CPU      0.09s WALL (     141 calls)
     fftw         :      0.88s CPU      0.73s WALL (    5330 calls)
     davcio       :      0.00s CPU      0.00s WALL (      12 calls)


     Hubbard U routines
     new_ns       :      0.01s CPU      0.04s WALL (       8 calls)
     vhpsi        :      0.02s CPU      0.03s WALL (     171 calls)
     force_hub    :      4.11s CPU      7.15s WALL (       1 calls)
     stres_hub    :    285.56s CPU    345.83s WALL (       1 calls)

     PWSCF        : 23m10.45s CPU    27m 2.76s WALL


   This run was terminated on:  21:15:26  14May2018            

=------------------------------------------------------------------------------=
   JOB DONE.
=------------------------------------------------------------------------------=
          total   stress  (Ry/bohr**3)                   (kbar)     P=********
  -0.21086026   0.00000000   0.00000000     -31018.61      0.00      0.00
   0.00000000  -0.21086026  -0.00000000          0.00 -31018.61     -0.00
   0.00000000  -0.00000000  -0.21086026          0.00     -0.00 -31018.61


     Writing output data file cerium.save
          total   stress  (Ry/bohr**3)                   (kbar)     P=********
  -0.21086026   0.00000000   0.00000000     -31018.61      0.00      0.00
   0.00000000  -0.21086026  -0.00000000          0.00 -31018.61     -0.00
   0.00000000  -0.00000000  -0.21086026          0.00     -0.00 -31018.61


     Writing output data file cerium.save

     init_run     :     83.80s CPU     87.01s WALL (       1 calls)
     electrons    :    815.88s CPU    926.73s WALL (       1 calls)
     forces       :     58.41s CPU     78.62s WALL (       1 calls)
     stress       :    414.10s CPU    507.59s WALL (       1 calls)

     Called by init_run:
     wfcinit      :     19.46s CPU     20.18s WALL (       1 calls)
     potinit      :      0.08s CPU      0.07s WALL (       1 calls)

     Called by electrons:
     c_bands      :    133.92s CPU    146.87s WALL (       8 calls)
     sum_band     :    425.30s CPU    483.84s WALL (       8 calls)
     v_of_rho     :      0.54s CPU      0.67s WALL (       9 calls)
     newd         :    292.86s CPU    333.42s WALL (       9 calls)
     mix_rho      :      0.01s CPU      0.00s WALL (       8 calls)

     Called by c_bands:
     init_us_2    :     60.18s CPU     70.02s WALL (     180 calls)
     cegterg      :    115.86s CPU    127.13s WALL (      48 calls)

     Called by sum_band:
     sum_band:bec :      3.97s CPU      4.46s WALL (      48 calls)
     addusdens    :    381.30s CPU    433.78s WALL (       8 calls)

     Called by *egterg:
     h_psi        :    124.98s CPU    136.55s WALL (     171 calls)
     s_psi        :      0.36s CPU      0.36s WALL (     237 calls)
     g_psi        :      0.00s CPU      0.01s WALL (     117 calls)
     cdiaghg      :      0.57s CPU      0.65s WALL (     165 calls)

     Called by h_psi:

     h_psi:pot    :    124.96s CPU    136.52s WALL (     171 calls)
     init_run     :     51.73s CPU     55.51s WALL (       1 calls)
     h_psi:calbec :      0.17s CPU      0.13s WALL (     171 calls)
     electrons    :    832.70s CPU    940.18s WALL (       1 calls)
     forces       :     54.70s CPU     76.68s WALL (       1 calls)
     vloc_psi     :    124.64s CPU    136.26s WALL (     171 calls)
     add_vuspsi   :      0.15s CPU      0.14s WALL (     171 calls)
     vhpsi        :      0.02s CPU      0.02s WALL (     171 calls)

     General routines
     calbec       :      0.62s CPU      0.50s WALL (    1296 calls)
     fft          :      0.05s CPU      0.09s WALL (     141 calls)
     fftw         :      0.81s CPU      0.66s WALL (    5330 calls)
     davcio       :      0.00s CPU      0.00s WALL (      12 calls)


     Hubbard U routines
     new_ns       :      0.01s CPU      0.01s WALL (       8 calls)
     vhpsi        :      0.02s CPU      0.02s WALL (     171 calls)
     force_hub    :      4.09s CPU      5.05s WALL (       1 calls)
     stres_hub    :    253.05s CPU    305.53s WALL (       1 calls)
     stress       :    429.75s CPU    527.00s WALL (       1 calls)

     Called by init_run:
     wfcinit      :     20.75s CPU     21.66s WALL (       1 calls)
     potinit      :      0.06s CPU      0.08s WALL (       1 calls)

     Called by electrons:
     c_bands      :    127.36s CPU    141.09s WALL (       8 calls)
     sum_band     :    435.21s CPU    485.65s WALL (       8 calls)
     v_of_rho     :      0.53s CPU      0.66s WALL (       9 calls)
     newd         :    291.77s CPU    335.17s WALL (       9 calls)
     mix_rho      :      0.01s CPU      0.00s WALL (       8 calls)

     Called by c_bands:

     PWSCF        : 23m12.36s CPU    27m 3.14s WALL

     init_us_2    :     62.09s CPU     71.61s WALL (     180 calls)

     cegterg      :    110.32s CPU    122.00s WALL (      48 calls)
   This run was terminated on:  21:15:27  14May2018            

=------------------------------------------------------------------------------=
   JOB DONE.
=------------------------------------------------------------------------------=

     Called by sum_band:
     sum_band:bec :      3.91s CPU      4.46s WALL (      48 calls)
     addusdens    :    389.70s CPU    434.60s WALL (       8 calls)

     Called by *egterg:
     h_psi        :    119.78s CPU    131.73s WALL (     171 calls)
     s_psi        :      0.29s CPU      0.28s WALL (     237 calls)
     g_psi        :      0.02s CPU      0.02s WALL (     117 calls)
     cdiaghg      :      0.60s CPU      0.74s WALL (     165 calls)

     Called by h_psi:
     h_psi:pot    :    119.69s CPU    131.65s WALL (     171 calls)
     h_psi:calbec :      0.17s CPU      0.10s WALL (     171 calls)
     vloc_psi     :    119.32s CPU    131.34s WALL (     171 calls)
     add_vuspsi   :      0.20s CPU      0.21s WALL (     171 calls)
     vhpsi        :      0.08s CPU      0.06s WALL (     171 calls)

     General routines
     calbec       :      0.78s CPU      0.66s WALL (    1296 calls)
     fft          :      0.03s CPU      0.04s WALL (     141 calls)
     fftw         :      0.87s CPU      0.67s WALL (    5330 calls)
     davcio       :      0.00s CPU      0.00s WALL (      12 calls)


     Hubbard U routines
     new_ns       :      0.02s CPU      0.01s WALL (       8 calls)
     vhpsi        :      0.08s CPU      0.06s WALL (     171 calls)
     force_hub    :      4.19s CPU      5.41s WALL (       1 calls)
     stres_hub    :    248.72s CPU    301.23s WALL (       1 calls)

     PWSCF        : 23m 8.99s CPU    27m 3.14s WALL


   This run was terminated on:  21:15:27  14May2018            

=------------------------------------------------------------------------------=
   JOB DONE.
=------------------------------------------------------------------------------=
