
     Program PWSCF v.6.1 (svn rev. 13369) starts on 17Oct2017 at 16: 0:51 

     This program is part of the open-source Quantum ESPRESSO suite
     for quantum simulation of materials; please cite
         "P. Giannozzi et al., J. Phys.:Condens. Matter 21 395502 (2009);
          URL http://www.quantum-espresso.org", 
     in publications or presentations arising from this work. More details at
     http://www.quantum-espresso.org/quote

     Serial multi-threaded version, running on    4 processor cores
     Waiting for input...
     Reading input from standard input
     Message from routine read_cards :
     DEPRECATED: no units specified in ATOMIC_POSITIONS card
     Message from routine read_cards :
     ATOMIC_POSITIONS: units set to alat

     Current dimensions of program PWSCF are:
     Max number of different atomic species (ntypx) = 10
     Max number of k-points (npk) =  40000
     Max angular momentum in pseudopotentials (lmaxx) =  3
               file Ce.pbe-mt_fhi.UPF: wavefunction(s)  6p renormalized
               file O.pbe-mt_fhi.UPF: wavefunction(s)  4f renormalized

     G-vector sticks info
     --------------------
     sticks:   dense  smooth     PW     G-vecs:    dense   smooth      PW
     Sum        1429    1429    421                35989    35989    5601



     bravais-lattice index     =            2
     lattice parameter (alat)  =      10.2253  a.u.
     unit-cell volume          =     267.2811 (a.u.)^3
     number of atoms/cell      =            3
     number of atomic types    =            2
     number of electrons       =        16.00
     number of Kohn-Sham states=            8
     kinetic-energy cutoff     =     100.0000  Ry
     charge density cutoff     =     400.0000  Ry
     convergence threshold     =      1.0E-08
     mixing beta               =       0.7000
     number of iterations used =            8  plain     mixing
     Exchange-correlation      = PBE ( 1  4  3  4 0 0)

     celldm(1)=  10.225300  celldm(2)=   0.000000  celldm(3)=   0.000000
     celldm(4)=   0.000000  celldm(5)=   0.000000  celldm(6)=   0.000000

     crystal axes: (cart. coord. in units of alat)
               a(1) = (  -0.500000   0.000000   0.500000 )  
               a(2) = (   0.000000   0.500000   0.500000 )  
               a(3) = (  -0.500000   0.500000   0.000000 )  

     reciprocal axes: (cart. coord. in units 2 pi/alat)
               b(1) = ( -1.000000 -1.000000  1.000000 )  
               b(2) = (  1.000000  1.000000  1.000000 )  
               b(3) = ( -1.000000  1.000000 -1.000000 )  


     PseudoPot. # 1 for Ce read from file:
     /home/dmitry/qe/qe-6.1/pseudo/Ce.pbe-mt_fhi.UPF
     MD5 check sum: 1b15565eaeb76444e6dff07a3ca2f97f
     Pseudo is Norm-conserving, Zval =  4.0
     Generated using FHI98PP, converted with fhi2upf.x v.5.0.2
     Using radial grid of  555 points,  3 beta functions with: 
                l(1) =   1
                l(2) =   2
                l(3) =   3

     PseudoPot. # 2 for  O read from file:
     /home/dmitry/qe/qe-6.1/pseudo/O.pbe-mt_fhi.UPF
     MD5 check sum: 2ddb684ddb3c5d7407f47e9cdd68296a
     Pseudo is Norm-conserving, Zval =  6.0
     Generated using FHI98PP, converted with fhi2upf.x v.5.0.2
     Using radial grid of  473 points,  3 beta functions with: 
                l(1) =   0
                l(2) =   1
                l(3) =   3

     atomic species   valence    mass     pseudopotential
        Ce             4.00   140.11600     Ce( 1.00)
        O              6.00    15.99900      O( 1.00)


     Simplified LDA+U calculation (l_max = 3) with parameters (eV):
     atomic species    L          U    alpha       J0     beta
        Ce             3     4.0000   0.0000   0.0000   0.0000



     48 Sym. Ops., with inversion, found



   Cartesian axes

     site n.     atom                  positions (alat units)
         1           Ce  tau(   1) = (   0.0000000   0.0000000   0.0000000  )
         2           O   tau(   2) = (   0.2500000   0.2500000   0.2500000  )
         3           O   tau(   3) = (   0.7500000   0.7500000   0.7500000  )

     number of k points=     6
                       cart. coord. in units 2pi/alat
        k(    1) = (  -0.1666667   0.1666667   0.1666667), wk =   0.1481481
        k(    2) = (   0.5000000  -0.5000000   0.8333333), wk =   0.4444444
        k(    3) = (   0.1666667  -0.1666667   0.5000000), wk =   0.4444444
        k(    4) = (  -0.1666667  -1.1666667   0.1666667), wk =   0.4444444
        k(    5) = (  -0.5000000  -0.8333333  -0.1666667), wk =   0.4444444
        k(    6) = (   0.5000000  -0.5000000  -0.5000000), wk =   0.0740741

     Dense  grid:    35989 G-vectors     FFT dimensions: (  48,  48,  48)

     Estimated max dynamical RAM per process >      31.69MB

     Initial potential from superposition of free atoms

     starting charge   15.99053, renormalised to   16.00000
     Number of +U iterations with fixed ns =  0
     Starting occupations:
 --- enter write_ns ---
 LDA+U parameters:
U( 1)     =  4.00000000
alpha( 1) =  0.00000000
atom    1   Tr[ns(na)] =   2.00000
    eigenvalues: 
  0.143  0.143  0.143  0.143  0.143  0.143  0.143
    eigenvectors:
  1.000  0.000  0.000  0.000  0.000  0.000  0.000
  0.000  1.000  0.000  0.000  0.000  0.000  0.000
  0.000  0.000  1.000  0.000  0.000  0.000  0.000
  0.000  0.000  0.000  1.000  0.000  0.000  0.000
  0.000  0.000  0.000  0.000  1.000  0.000  0.000
  0.000  0.000  0.000  0.000  0.000  1.000  0.000
  0.000  0.000  0.000  0.000  0.000  0.000  1.000
    occupations:
  0.143  0.000  0.000  0.000  0.000  0.000  0.000
  0.000  0.143  0.000  0.000  0.000  0.000  0.000
  0.000  0.000  0.143  0.000  0.000  0.000  0.000
  0.000  0.000  0.000  0.143  0.000  0.000  0.000
  0.000  0.000  0.000  0.000  0.143  0.000  0.000
  0.000  0.000  0.000  0.000  0.000  0.143  0.000
  0.000  0.000  0.000  0.000  0.000  0.000  0.143
N of occupied +U levels =    2.000000
 --- exit write_ns ---
 Atomic wfc used for LDA+U Projector are NOT orthogonalized
     Starting wfc are   48 randomized atomic wfcs

     total cpu time spent up to now is        5.9 secs

     per-process dynamical memory:    27.6 Mb

     Self-consistent Calculation

     iteration #  1     ecut=   100.00 Ry     beta=0.70
     Davidson diagonalization with overlap
     ethr =  1.00E-02,  avg # of iterations =  2.0
 --- enter write_ns ---
 LDA+U parameters:
U( 1)     =  4.00000000
alpha( 1) =  0.00000000
atom    1   Tr[ns(na)] =   0.36854
    eigenvalues: 
  0.018  0.018  0.018  0.021  0.021  0.021  0.065
    eigenvectors:
  0.000  0.000  0.000  0.808  0.183  0.009  0.000
  0.008  0.157  0.460  0.058  0.293  0.024  0.000
  0.601  0.024  0.000  0.014  0.014  0.348  0.000
  0.025  0.711  0.264  0.000  0.000  0.000  0.000
  0.000  0.000  0.000  0.000  0.000  0.000  1.000
  0.005  0.094  0.276  0.097  0.488  0.040  0.000
  0.361  0.014  0.000  0.023  0.023  0.580  0.000
    occupations:
  0.021 -0.000 -0.000  0.000 -0.000  0.000 -0.000
 -0.000  0.019 -0.000  0.000  0.000 -0.002 -0.000
 -0.000 -0.000  0.019  0.000 -0.000  0.000  0.002
  0.000  0.000  0.000  0.018 -0.000 -0.000  0.000
 -0.000  0.000 -0.000 -0.000  0.065 -0.000 -0.000
  0.000 -0.002  0.000 -0.000 -0.000  0.020  0.000
 -0.000 -0.000  0.002  0.000 -0.000  0.000  0.020
N of occupied +U levels =    0.368542
 --- exit write_ns ---

     total cpu time spent up to now is        8.8 secs

     total energy              =     -69.04960685 Ry
     Harris-Foulkes estimate   =     -70.13602499 Ry
     estimated scf accuracy    <       1.53424092 Ry

     iteration #  2     ecut=   100.00 Ry     beta=0.70
     Davidson diagonalization with overlap
     ethr =  9.59E-03,  avg # of iterations =  4.8

     total cpu time spent up to now is       13.6 secs

     total energy              =     -69.18192494 Ry
     Harris-Foulkes estimate   =     -70.44260846 Ry
     estimated scf accuracy    <       3.36433474 Ry

     iteration #  3     ecut=   100.00 Ry     beta=0.70
     Davidson diagonalization with overlap
     ethr =  9.59E-03,  avg # of iterations =  3.5

     total cpu time spent up to now is       17.0 secs

     total energy              =     -69.75723426 Ry
     Harris-Foulkes estimate   =     -69.74363663 Ry
     estimated scf accuracy    <       0.02355583 Ry

     iteration #  4     ecut=   100.00 Ry     beta=0.70
     Davidson diagonalization with overlap
     ethr =  1.47E-04,  avg # of iterations =  6.3

     negative rho (up, down):  1.206E-07 0.000E+00

     total cpu time spent up to now is       20.5 secs

     total energy              =     -69.78639124 Ry
     Harris-Foulkes estimate   =     -69.78662997 Ry
     estimated scf accuracy    <       0.00656954 Ry

     iteration #  5     ecut=   100.00 Ry     beta=0.70
     Davidson diagonalization with overlap
     ethr =  4.11E-05,  avg # of iterations =  5.3

     total cpu time spent up to now is       23.3 secs

     total energy              =     -69.79069455 Ry
     Harris-Foulkes estimate   =     -69.79037670 Ry
     estimated scf accuracy    <       0.00219395 Ry

     iteration #  6     ecut=   100.00 Ry     beta=0.70
     Davidson diagonalization with overlap
     ethr =  1.37E-05,  avg # of iterations =  2.3

     total cpu time spent up to now is       25.3 secs

     total energy              =     -69.79090714 Ry
     Harris-Foulkes estimate   =     -69.79087179 Ry
     estimated scf accuracy    <       0.00130493 Ry

     iteration #  7     ecut=   100.00 Ry     beta=0.70
     Davidson diagonalization with overlap
     ethr =  8.16E-06,  avg # of iterations =  5.3

     total cpu time spent up to now is       28.1 secs

     total energy              =     -69.79116218 Ry
     Harris-Foulkes estimate   =     -69.79131133 Ry
     estimated scf accuracy    <       0.00057110 Ry

     iteration #  8     ecut=   100.00 Ry     beta=0.70
     Davidson diagonalization with overlap
     ethr =  3.57E-06,  avg # of iterations =  5.0

     total cpu time spent up to now is       34.0 secs

     total energy              =     -69.79138414 Ry
     Harris-Foulkes estimate   =     -69.79138089 Ry
     estimated scf accuracy    <       0.00000595 Ry

     iteration #  9     ecut=   100.00 Ry     beta=0.70
     Davidson diagonalization with overlap
     ethr =  3.72E-08,  avg # of iterations = 10.0

     total cpu time spent up to now is       42.4 secs

     total energy              =     -69.79140525 Ry
     Harris-Foulkes estimate   =     -69.79142092 Ry
     estimated scf accuracy    <       0.00005552 Ry

     iteration # 10     ecut=   100.00 Ry     beta=0.70
     Davidson diagonalization with overlap
     ethr =  3.72E-08,  avg # of iterations =  5.0

     total cpu time spent up to now is       46.8 secs

     total energy              =     -69.79140997 Ry
     Harris-Foulkes estimate   =     -69.79141092 Ry
     estimated scf accuracy    <       0.00000277 Ry

     iteration # 11     ecut=   100.00 Ry     beta=0.70
     Davidson diagonalization with overlap
     ethr =  1.73E-08,  avg # of iterations =  5.2

     total cpu time spent up to now is       50.6 secs

     total energy              =     -69.79141239 Ry
     Harris-Foulkes estimate   =     -69.79141343 Ry
     estimated scf accuracy    <       0.00000520 Ry

     iteration # 12     ecut=   100.00 Ry     beta=0.70
     Davidson diagonalization with overlap
     ethr =  1.73E-08,  avg # of iterations =  5.2

     total cpu time spent up to now is       55.7 secs

     total energy              =     -69.79141254 Ry
     Harris-Foulkes estimate   =     -69.79141309 Ry
     estimated scf accuracy    <       0.00000636 Ry

     iteration # 13     ecut=   100.00 Ry     beta=0.70
     Davidson diagonalization with overlap
     ethr =  1.73E-08,  avg # of iterations =  2.7

     total cpu time spent up to now is       60.3 secs

     total energy              =     -69.79141269 Ry
     Harris-Foulkes estimate   =     -69.79141298 Ry
     estimated scf accuracy    <       0.00000084 Ry

     iteration # 14     ecut=   100.00 Ry     beta=0.70
     Davidson diagonalization with overlap
     ethr =  5.24E-09,  avg # of iterations =  4.2

     total cpu time spent up to now is       64.4 secs

     total energy              =     -69.79141299 Ry
     Harris-Foulkes estimate   =     -69.79141302 Ry
     estimated scf accuracy    <       0.00000015 Ry

     iteration # 15     ecut=   100.00 Ry     beta=0.70
     Davidson diagonalization with overlap
     ethr =  9.32E-10,  avg # of iterations =  5.2

     total cpu time spent up to now is       68.7 secs

     End of self-consistent calculation
 --- enter write_ns ---
 LDA+U parameters:
U( 1)     =  4.00000000
alpha( 1) =  0.00000000
atom    1   Tr[ns(na)] =   1.05859
    eigenvalues: 
  0.027  0.027  0.027  0.037  0.037  0.037  0.336
    eigenvectors:
  0.000  0.000  0.000  0.441  0.554  0.005  0.000
  0.007  0.033  0.585  0.200  0.167  0.008  0.000
  0.013  0.584  0.028  0.010  0.001  0.365  0.000
  0.968  0.013  0.019  0.000  0.000  0.000  0.000
  0.000  0.000  0.000  0.000  0.000  0.000  1.000
  0.004  0.020  0.351  0.334  0.278  0.014  0.000
  0.008  0.350  0.017  0.016  0.001  0.608  0.000
    occupations:
  0.037 -0.000 -0.000  0.000 -0.000  0.000 -0.000
 -0.000  0.031 -0.000  0.000  0.000 -0.005 -0.000
 -0.000 -0.000  0.031  0.000 -0.000  0.000  0.005
  0.000  0.000  0.000  0.027 -0.000 -0.000  0.000
 -0.000  0.000 -0.000 -0.000  0.336 -0.000 -0.000
  0.000 -0.005  0.000 -0.000 -0.000  0.033  0.000
 -0.000 -0.000  0.005  0.000 -0.000  0.000  0.033
N of occupied +U levels =    1.058592
 --- exit write_ns ---

          k =-0.1667 0.1667 0.1667 (  4510 PWs)   bands (ev):

   -10.3331  -8.9872   2.2452   2.2452   2.6323   5.8246   5.9481   5.9481

          k = 0.5000-0.5000 0.8333 (  4518 PWs)   bands (ev):

    -9.8978  -9.4108   2.8525   3.2965   4.5001   4.5717   5.0219   6.1095

          k = 0.1667-0.1667 0.5000 (  4524 PWs)   bands (ev):

    -9.9563  -9.3807   2.8490   2.8676   3.9043   4.1414   5.9999   6.0549

          k =-0.1667-1.1667 0.1667 (  4508 PWs)   bands (ev):

    -9.7758  -9.4928   2.5111   4.0401   4.0606   5.1513   5.4469   5.6679

          k =-0.5000-0.8333-0.1667 (  4494 PWs)   bands (ev):

    -9.7352  -9.5359   3.0162   3.5655   4.2348   5.0624   5.1152   5.7900

          k = 0.5000-0.5000-0.5000 (  4512 PWs)   bands (ev):

   -10.0508  -9.2467   2.9541   2.9541   4.4356   4.9759   5.5733   5.5733

     highest occupied level (ev):     6.1095

!    total energy              =     -69.79141306 Ry
     Harris-Foulkes estimate   =     -69.79141307 Ry
     estimated scf accuracy    <          8.3E-09 Ry

     The total energy is the sum of the following terms:

     one-electron contribution =     -20.00007139 Ry
     hartree contribution      =      21.06192748 Ry
     xc contribution           =     -16.31380769 Ry
     ewald contribution        =     -54.65995945 Ry
     Hubbard energy            =       0.12049799 Ry

     convergence has been achieved in  15 iterations

     Forces acting on atoms (cartesian axes, Ry/au):

     atom    1 type  1   force =     0.00000000    0.00000000    0.00000000
     atom    2 type  2   force =     0.00000000    0.00000000    0.00000000
     atom    3 type  2   force =     0.00000000   -0.00000000    0.00000000

     Total force =     0.000000     Total SCF correction =     0.000000


     Computing stress (Cartesian axis) and pressure

          total   stress  (Ry/bohr**3)                   (kbar)     P=  489.23
   0.00332573  -0.00000000  -0.00000000        489.23     -0.00     -0.00
  -0.00000000   0.00332573   0.00000000         -0.00    489.23      0.00
  -0.00000000   0.00000000   0.00332573         -0.00      0.00    489.23


     Writing output data file cerium.save

     init_run     :     14.42s CPU      5.72s WALL (       1 calls)
     electrons    :    169.65s CPU     62.81s WALL (       1 calls)
     forces       :      3.02s CPU      1.45s WALL (       1 calls)
     stress       :     23.03s CPU      8.03s WALL (       1 calls)

     Called by init_run:
     wfcinit      :     13.45s CPU      4.83s WALL (       1 calls)
     potinit      :      0.28s CPU      0.22s WALL (       1 calls)

     Called by electrons:
     c_bands      :    140.31s CPU     50.85s WALL (      15 calls)
     sum_band     :     24.86s CPU      8.49s WALL (      15 calls)
     v_of_rho     :      4.15s CPU      3.07s WALL (      16 calls)
     mix_rho      :      0.49s CPU      0.51s WALL (      15 calls)

     Called by c_bands:
     init_us_2    :     15.88s CPU      5.53s WALL (     264 calls)
     cegterg      :    131.99s CPU     47.31s WALL (      90 calls)

     Called by sum_band:

     Called by *egterg:
     h_psi        :    137.19s CPU     45.89s WALL (     528 calls)
     g_psi        :      0.21s CPU      0.21s WALL (     432 calls)
     cdiaghg      :      0.38s CPU      0.22s WALL (     522 calls)

     Called by h_psi:
     h_psi:pot    :    135.79s CPU     44.82s WALL (     528 calls)
     h_psi:calbec :      8.81s CPU      2.81s WALL (     528 calls)
     vloc_psi     :    122.68s CPU     39.34s WALL (     528 calls)
     add_vuspsi   :      4.28s CPU      2.67s WALL (     528 calls)
     vhpsi        :      1.22s CPU      0.92s WALL (     528 calls)

     General routines
     calbec       :     13.62s CPU      5.83s WALL (    2004 calls)
     fft          :      2.22s CPU      1.57s WALL (     183 calls)
     fftw         :     98.30s CPU     30.13s WALL (    6376 calls)
     davcio       :      0.00s CPU      0.01s WALL (      12 calls)


     Hubbard U routines
     new_ns       :      0.20s CPU      0.18s WALL (      15 calls)
     vhpsi        :      1.22s CPU      0.92s WALL (     528 calls)
     force_hub    :      1.58s CPU      0.84s WALL (       1 calls)
     stres_hub    :     16.30s CPU      5.54s WALL (       1 calls)

     PWSCF        :  3m30.42s CPU     1m18.27s WALL


   This run was terminated on:  16: 2:10  17Oct2017            

=------------------------------------------------------------------------------=
   JOB DONE.
=------------------------------------------------------------------------------=
