
     Program PWSCF v.6.1 (svn rev. 13369) starts on 17Oct2017 at 16:19:31 

     This program is part of the open-source Quantum ESPRESSO suite
     for quantum simulation of materials; please cite
         "P. Giannozzi et al., J. Phys.:Condens. Matter 21 395502 (2009);
          URL http://www.quantum-espresso.org", 
     in publications or presentations arising from this work. More details at
     http://www.quantum-espresso.org/quote

     Serial multi-threaded version, running on    4 processor cores
     Waiting for input...
     Reading input from standard input
     Message from routine read_cards :
     DEPRECATED: no units specified in ATOMIC_POSITIONS card
     Message from routine read_cards :
     ATOMIC_POSITIONS: units set to alat

     Current dimensions of program PWSCF are:
     Max number of different atomic species (ntypx) = 10
     Max number of k-points (npk) =  40000
     Max angular momentum in pseudopotentials (lmaxx) =  3
               file Ce.pbe-mt_fhi.UPF: wavefunction(s)  6p renormalized
               file O.pbe-mt_fhi.UPF: wavefunction(s)  4f renormalized

     G-vector sticks info
     --------------------
     sticks:   dense  smooth     PW     G-vecs:    dense   smooth      PW
     Sum        1285    1285    379                30827    30827    4909



     bravais-lattice index     =            2
     lattice parameter (alat)  =      10.2253  a.u.
     unit-cell volume          =     267.2811 (a.u.)^3
     number of atoms/cell      =            3
     number of atomic types    =            2
     number of electrons       =        16.00
     number of Kohn-Sham states=            8
     kinetic-energy cutoff     =      90.0000  Ry
     charge density cutoff     =     360.0000  Ry
     convergence threshold     =      1.0E-08
     mixing beta               =       0.7000
     number of iterations used =            8  plain     mixing
     Exchange-correlation      = PBE ( 1  4  3  4 0 0)

     celldm(1)=  10.225300  celldm(2)=   0.000000  celldm(3)=   0.000000
     celldm(4)=   0.000000  celldm(5)=   0.000000  celldm(6)=   0.000000

     crystal axes: (cart. coord. in units of alat)
               a(1) = (  -0.500000   0.000000   0.500000 )  
               a(2) = (   0.000000   0.500000   0.500000 )  
               a(3) = (  -0.500000   0.500000   0.000000 )  

     reciprocal axes: (cart. coord. in units 2 pi/alat)
               b(1) = ( -1.000000 -1.000000  1.000000 )  
               b(2) = (  1.000000  1.000000  1.000000 )  
               b(3) = ( -1.000000  1.000000 -1.000000 )  


     PseudoPot. # 1 for Ce read from file:
     /home/dmitry/qe/qe-6.1/pseudo/Ce.pbe-mt_fhi.UPF
     MD5 check sum: 1b15565eaeb76444e6dff07a3ca2f97f
     Pseudo is Norm-conserving, Zval =  4.0
     Generated using FHI98PP, converted with fhi2upf.x v.5.0.2
     Using radial grid of  555 points,  3 beta functions with: 
                l(1) =   1
                l(2) =   2
                l(3) =   3

     PseudoPot. # 2 for  O read from file:
     /home/dmitry/qe/qe-6.1/pseudo/O.pbe-mt_fhi.UPF
     MD5 check sum: 2ddb684ddb3c5d7407f47e9cdd68296a
     Pseudo is Norm-conserving, Zval =  6.0
     Generated using FHI98PP, converted with fhi2upf.x v.5.0.2
     Using radial grid of  473 points,  3 beta functions with: 
                l(1) =   0
                l(2) =   1
                l(3) =   3

     atomic species   valence    mass     pseudopotential
        Ce             4.00   140.11600     Ce( 1.00)
        O              6.00    15.99900      O( 1.00)

     48 Sym. Ops., with inversion, found



   Cartesian axes

     site n.     atom                  positions (alat units)
         1           Ce  tau(   1) = (   0.0000000   0.0000000   0.0000000  )
         2           O   tau(   2) = (   0.2500000   0.2500000   0.2500000  )
         3           O   tau(   3) = (   0.7500000   0.7500000   0.7500000  )

     number of k points=     6
                       cart. coord. in units 2pi/alat
        k(    1) = (  -0.1666667   0.1666667   0.1666667), wk =   0.1481481
        k(    2) = (   0.5000000  -0.5000000   0.8333333), wk =   0.4444444
        k(    3) = (   0.1666667  -0.1666667   0.5000000), wk =   0.4444444
        k(    4) = (  -0.1666667  -1.1666667   0.1666667), wk =   0.4444444
        k(    5) = (  -0.5000000  -0.8333333  -0.1666667), wk =   0.4444444
        k(    6) = (   0.5000000  -0.5000000  -0.5000000), wk =   0.0740741

     Dense  grid:    30827 G-vectors     FFT dimensions: (  45,  45,  45)

     Estimated max dynamical RAM per process >      26.46MB

     Initial potential from superposition of free atoms

     starting charge   15.99053, renormalised to   16.00000
     Starting wfc are   48 randomized atomic wfcs

     total cpu time spent up to now is        4.7 secs

     per-process dynamical memory:    20.9 Mb

     Self-consistent Calculation

     iteration #  1     ecut=    90.00 Ry     beta=0.70
     Davidson diagonalization with overlap
     ethr =  1.00E-02,  avg # of iterations =  2.0

     total cpu time spent up to now is        6.4 secs

     total energy              =     -69.19738557 Ry
     Harris-Foulkes estimate   =     -70.22180831 Ry
     estimated scf accuracy    <       1.41063604 Ry

     iteration #  2     ecut=    90.00 Ry     beta=0.70
     Davidson diagonalization with overlap
     ethr =  8.82E-03,  avg # of iterations =  7.8

     total cpu time spent up to now is        9.8 secs

     total energy              =     -68.80201061 Ry
     Harris-Foulkes estimate   =     -70.99081807 Ry
     estimated scf accuracy    <       7.50992744 Ry

     iteration #  3     ecut=    90.00 Ry     beta=0.70
     Davidson diagonalization with overlap
     ethr =  8.82E-03,  avg # of iterations =  5.0

     total cpu time spent up to now is       12.5 secs

     total energy              =     -69.90374778 Ry
     Harris-Foulkes estimate   =     -69.91212012 Ry
     estimated scf accuracy    <       0.05228673 Ry

     iteration #  4     ecut=    90.00 Ry     beta=0.70
     Davidson diagonalization with overlap
     ethr =  3.27E-04,  avg # of iterations =  3.3

     total cpu time spent up to now is       14.6 secs

     total energy              =     -69.90660138 Ry
     Harris-Foulkes estimate   =     -69.91889705 Ry
     estimated scf accuracy    <       0.03870893 Ry

     iteration #  5     ecut=    90.00 Ry     beta=0.70
     Davidson diagonalization with overlap
     ethr =  2.42E-04,  avg # of iterations =  4.0

     total cpu time spent up to now is       16.5 secs

     total energy              =     -69.92109966 Ry
     Harris-Foulkes estimate   =     -69.91936508 Ry
     estimated scf accuracy    <       0.00270774 Ry

     iteration #  6     ecut=    90.00 Ry     beta=0.70
     Davidson diagonalization with overlap
     ethr =  1.69E-05,  avg # of iterations =  6.0

     negative rho (up, down):  1.882E-08 0.000E+00

     total cpu time spent up to now is       19.4 secs

     total energy              =     -69.92066391 Ry
     Harris-Foulkes estimate   =     -69.92425766 Ry
     estimated scf accuracy    <       0.01093142 Ry

     iteration #  7     ecut=    90.00 Ry     beta=0.70
     Davidson diagonalization with overlap
     ethr =  1.69E-05,  avg # of iterations =  5.8

     total cpu time spent up to now is       22.5 secs

     total energy              =     -69.92451148 Ry
     Harris-Foulkes estimate   =     -69.92373827 Ry
     estimated scf accuracy    <       0.00163815 Ry

     iteration #  8     ecut=    90.00 Ry     beta=0.70
     Davidson diagonalization with overlap
     ethr =  1.02E-05,  avg # of iterations =  5.5

     total cpu time spent up to now is       25.0 secs

     total energy              =     -69.92535260 Ry
     Harris-Foulkes estimate   =     -69.92526100 Ry
     estimated scf accuracy    <       0.00699891 Ry

     iteration #  9     ecut=    90.00 Ry     beta=0.70
     Davidson diagonalization with overlap
     ethr =  1.02E-05,  avg # of iterations =  1.0

     total cpu time spent up to now is       26.6 secs

     total energy              =     -69.92414426 Ry
     Harris-Foulkes estimate   =     -69.92538369 Ry
     estimated scf accuracy    <       0.00682935 Ry

     iteration # 10     ecut=    90.00 Ry     beta=0.70
     Davidson diagonalization with overlap
     ethr =  1.02E-05,  avg # of iterations =  2.5

     total cpu time spent up to now is       28.3 secs

     total energy              =     -69.92424023 Ry
     Harris-Foulkes estimate   =     -69.92440376 Ry
     estimated scf accuracy    <       0.00207892 Ry

     iteration # 11     ecut=    90.00 Ry     beta=0.70
     Davidson diagonalization with overlap
     ethr =  1.02E-05,  avg # of iterations =  1.0

     total cpu time spent up to now is       29.9 secs

     total energy              =     -69.92444406 Ry
     Harris-Foulkes estimate   =     -69.92428550 Ry
     estimated scf accuracy    <       0.00143480 Ry

     iteration # 12     ecut=    90.00 Ry     beta=0.70
     Davidson diagonalization with overlap
     ethr =  8.97E-06,  avg # of iterations =  1.0

     total cpu time spent up to now is       31.5 secs

     total energy              =     -69.92439454 Ry
     Harris-Foulkes estimate   =     -69.92446143 Ry
     estimated scf accuracy    <       0.00174064 Ry

     iteration # 13     ecut=    90.00 Ry     beta=0.70
     Davidson diagonalization with overlap
     ethr =  8.97E-06,  avg # of iterations =  1.0

     total cpu time spent up to now is       33.1 secs

     total energy              =     -69.92423061 Ry
     Harris-Foulkes estimate   =     -69.92440572 Ry
     estimated scf accuracy    <       0.00152324 Ry

     iteration # 14     ecut=    90.00 Ry     beta=0.70
     Davidson diagonalization with overlap
     ethr =  8.97E-06,  avg # of iterations =  1.0

     total cpu time spent up to now is       34.7 secs

     total energy              =     -69.92365224 Ry
     Harris-Foulkes estimate   =     -69.92425260 Ry
     estimated scf accuracy    <       0.00104375 Ry

     iteration # 15     ecut=    90.00 Ry     beta=0.70
     Davidson diagonalization with overlap
     ethr =  6.52E-06,  avg # of iterations =  5.7

     total cpu time spent up to now is       37.8 secs

     total energy              =     -69.92409834 Ry
     Harris-Foulkes estimate   =     -69.92573874 Ry
     estimated scf accuracy    <       0.00724193 Ry

     iteration # 16     ecut=    90.00 Ry     beta=0.70
     Davidson diagonalization with overlap
     ethr =  6.52E-06,  avg # of iterations =  5.3

     total cpu time spent up to now is       40.3 secs

     total energy              =     -69.92525729 Ry
     Harris-Foulkes estimate   =     -69.92453792 Ry
     estimated scf accuracy    <       0.00078425 Ry

     iteration # 17     ecut=    90.00 Ry     beta=0.70
     Davidson diagonalization with overlap
     ethr =  4.90E-06,  avg # of iterations =  5.7

     total cpu time spent up to now is       42.9 secs

     total energy              =     -69.92356159 Ry
     Harris-Foulkes estimate   =     -69.92574652 Ry
     estimated scf accuracy    <       0.00765813 Ry

     iteration # 18     ecut=    90.00 Ry     beta=0.70
     Davidson diagonalization with overlap
     ethr =  4.90E-06,  avg # of iterations =  5.5

     total cpu time spent up to now is       46.0 secs

     total energy              =     -69.92451105 Ry
     Harris-Foulkes estimate   =     -69.92447207 Ry
     estimated scf accuracy    <       0.00005032 Ry

     iteration # 19     ecut=    90.00 Ry     beta=0.70
     Davidson diagonalization with overlap
     ethr =  3.15E-07,  avg # of iterations =  6.0

     total cpu time spent up to now is       48.7 secs

     total energy              =     -69.92455641 Ry
     Harris-Foulkes estimate   =     -69.92454402 Ry
     estimated scf accuracy    <       0.00010528 Ry

     iteration # 20     ecut=    90.00 Ry     beta=0.70
     Davidson diagonalization with overlap
     ethr =  3.15E-07,  avg # of iterations =  2.2

     total cpu time spent up to now is       50.4 secs

     total energy              =     -69.92454830 Ry
     Harris-Foulkes estimate   =     -69.92456259 Ry
     estimated scf accuracy    <       0.00019253 Ry

     iteration # 21     ecut=    90.00 Ry     beta=0.70
     Davidson diagonalization with overlap
     ethr =  3.15E-07,  avg # of iterations =  1.0

     total cpu time spent up to now is       52.0 secs

     total energy              =     -69.92454318 Ry
     Harris-Foulkes estimate   =     -69.92454895 Ry
     estimated scf accuracy    <       0.00016573 Ry

     iteration # 22     ecut=    90.00 Ry     beta=0.70
     Davidson diagonalization with overlap
     ethr =  3.15E-07,  avg # of iterations =  1.0

     total cpu time spent up to now is       53.5 secs

     total energy              =     -69.92449240 Ry
     Harris-Foulkes estimate   =     -69.92454370 Ry
     estimated scf accuracy    <       0.00015069 Ry

     iteration # 23     ecut=    90.00 Ry     beta=0.70
     Davidson diagonalization with overlap
     ethr =  3.15E-07,  avg # of iterations =  5.3

     total cpu time spent up to now is       56.5 secs

     total energy              =     -69.92451592 Ry
     Harris-Foulkes estimate   =     -69.92454043 Ry
     estimated scf accuracy    <       0.00003674 Ry

     iteration # 24     ecut=    90.00 Ry     beta=0.70
     Davidson diagonalization with overlap
     ethr =  2.30E-07,  avg # of iterations =  5.0

     total cpu time spent up to now is       59.4 secs

     total energy              =     -69.92454238 Ry
     Harris-Foulkes estimate   =     -69.92455422 Ry
     estimated scf accuracy    <       0.00010687 Ry

     iteration # 25     ecut=    90.00 Ry     beta=0.70
     Davidson diagonalization with overlap
     ethr =  2.30E-07,  avg # of iterations =  1.0

     total cpu time spent up to now is       61.0 secs

     total energy              =     -69.92453509 Ry
     Harris-Foulkes estimate   =     -69.92454326 Ry
     estimated scf accuracy    <       0.00007612 Ry

     iteration # 26     ecut=    90.00 Ry     beta=0.70
     Davidson diagonalization with overlap
     ethr =  2.30E-07,  avg # of iterations =  1.0

     total cpu time spent up to now is       62.6 secs

     total energy              =     -69.92452615 Ry
     Harris-Foulkes estimate   =     -69.92453594 Ry
     estimated scf accuracy    <       0.00005516 Ry

     iteration # 27     ecut=    90.00 Ry     beta=0.70
     Davidson diagonalization with overlap
     ethr =  2.30E-07,  avg # of iterations =  2.2

     total cpu time spent up to now is       64.2 secs

     total energy              =     -69.92452285 Ry
     Harris-Foulkes estimate   =     -69.92453094 Ry
     estimated scf accuracy    <       0.00001090 Ry

     iteration # 28     ecut=    90.00 Ry     beta=0.70
     Davidson diagonalization with overlap
     ethr =  6.81E-08,  avg # of iterations = 10.0

     total cpu time spent up to now is       68.6 secs

     total energy              =     -69.92446482 Ry
     Harris-Foulkes estimate   =     -69.92460114 Ry
     estimated scf accuracy    <       0.00041620 Ry

     iteration # 29     ecut=    90.00 Ry     beta=0.70
     Davidson diagonalization with overlap
     ethr =  6.81E-08,  avg # of iterations = 10.0

     total cpu time spent up to now is       72.9 secs

     total energy              =     -69.92453514 Ry
     Harris-Foulkes estimate   =     -69.92453632 Ry
     estimated scf accuracy    <       0.00001271 Ry

     iteration # 30     ecut=    90.00 Ry     beta=0.70
     Davidson diagonalization with overlap
     ethr =  6.81E-08,  avg # of iterations =  1.0

     total cpu time spent up to now is       74.5 secs

     total energy              =     -69.92452725 Ry
     Harris-Foulkes estimate   =     -69.92453522 Ry
     estimated scf accuracy    <       0.00001019 Ry

     iteration # 31     ecut=    90.00 Ry     beta=0.70
     Davidson diagonalization with overlap
     ethr =  6.37E-08,  avg # of iterations =  5.3

     total cpu time spent up to now is       77.4 secs

     total energy              =     -69.92453127 Ry
     Harris-Foulkes estimate   =     -69.92454093 Ry
     estimated scf accuracy    <       0.00004834 Ry

     iteration # 32     ecut=    90.00 Ry     beta=0.70
     Davidson diagonalization with overlap
     ethr =  6.37E-08,  avg # of iterations =  4.0

     total cpu time spent up to now is       79.5 secs

     total energy              =     -69.92453302 Ry
     Harris-Foulkes estimate   =     -69.92453385 Ry
     estimated scf accuracy    <       0.00000811 Ry

     iteration # 33     ecut=    90.00 Ry     beta=0.70
     Davidson diagonalization with overlap
     ethr =  5.07E-08,  avg # of iterations =  3.3

     total cpu time spent up to now is       81.5 secs

     total energy              =     -69.92453370 Ry
     Harris-Foulkes estimate   =     -69.92453416 Ry
     estimated scf accuracy    <       0.00000217 Ry

     iteration # 34     ecut=    90.00 Ry     beta=0.70
     Davidson diagonalization with overlap
     ethr =  1.36E-08,  avg # of iterations =  6.7

     total cpu time spent up to now is       84.7 secs

     total energy              =     -69.92453769 Ry
     Harris-Foulkes estimate   =     -69.92453769 Ry
     estimated scf accuracy    <       0.00001255 Ry

     iteration # 35     ecut=    90.00 Ry     beta=0.70
     Davidson diagonalization with overlap
     ethr =  1.36E-08,  avg # of iterations =  1.0

     total cpu time spent up to now is       86.3 secs

     total energy              =     -69.92453843 Ry
     Harris-Foulkes estimate   =     -69.92453772 Ry
     estimated scf accuracy    <       0.00001268 Ry

     iteration # 36     ecut=    90.00 Ry     beta=0.70
     Davidson diagonalization with overlap
     ethr =  1.36E-08,  avg # of iterations =  1.0

     total cpu time spent up to now is       87.8 secs

     total energy              =     -69.92453812 Ry
     Harris-Foulkes estimate   =     -69.92453848 Ry
     estimated scf accuracy    <       0.00001466 Ry

     iteration # 37     ecut=    90.00 Ry     beta=0.70
     Davidson diagonalization with overlap
     ethr =  1.36E-08,  avg # of iterations =  1.0

     total cpu time spent up to now is       89.4 secs

     total energy              =     -69.92453012 Ry
     Harris-Foulkes estimate   =     -69.92453814 Ry
     estimated scf accuracy    <       0.00001426 Ry

     iteration # 38     ecut=    90.00 Ry     beta=0.70
     Davidson diagonalization with overlap
     ethr =  1.36E-08,  avg # of iterations =  8.8

     total cpu time spent up to now is       93.1 secs

     total energy              =     -69.92453165 Ry
     Harris-Foulkes estimate   =     -69.92453912 Ry
     estimated scf accuracy    <       0.00002236 Ry

     iteration # 39     ecut=    90.00 Ry     beta=0.70
     Davidson diagonalization with overlap
     ethr =  1.36E-08,  avg # of iterations =  7.0

     total cpu time spent up to now is       96.4 secs

     total energy              =     -69.92453541 Ry
     Harris-Foulkes estimate   =     -69.92453561 Ry
     estimated scf accuracy    <       0.00000049 Ry

     iteration # 40     ecut=    90.00 Ry     beta=0.70
     Davidson diagonalization with overlap
     ethr =  3.08E-09,  avg # of iterations =  3.3

     total cpu time spent up to now is       98.3 secs

     End of self-consistent calculation

          k =-0.1667 0.1667 0.1667 (  3825 PWs)   bands (ev):

   -10.5504  -9.2620   2.1350   2.1350   2.5051   5.4161   5.5239   5.5239

          k = 0.5000-0.5000 0.8333 (  3843 PWs)   bands (ev):

   -10.1228  -9.6629   2.7251   3.1554   4.2477   4.3084   4.7070   5.8039

          k = 0.1667-0.1667 0.5000 (  3866 PWs)   bands (ev):

   -10.1893  -9.6287   2.7057   2.7223   3.7145   3.8757   5.6726   5.6770

          k =-0.1667-1.1667 0.1667 (  3874 PWs)   bands (ev):

    -9.9961  -9.7547   2.3672   3.8011   3.8144   4.8967   5.1935   5.4626

          k =-0.5000-0.8333-0.1667 (  3870 PWs)   bands (ev):

    -9.9675  -9.7819   2.8828   3.3115   4.0363   4.7773   4.8578   5.5780

          k = 0.5000-0.5000-0.5000 (  3828 PWs)   bands (ev):

   -10.2605  -9.5132   2.8484   2.8484   4.1899   4.7856   5.1697   5.1697

     highest occupied level (ev):     5.8039

!    total energy              =     -69.92453552 Ry
     Harris-Foulkes estimate   =     -69.92453552 Ry
     estimated scf accuracy    <          2.4E-09 Ry

     The total energy is the sum of the following terms:

     one-electron contribution =     -19.84530119 Ry
     hartree contribution      =      20.87441416 Ry
     xc contribution           =     -16.29368904 Ry
     ewald contribution        =     -54.65995945 Ry

     convergence has been achieved in  40 iterations

     Forces acting on atoms (cartesian axes, Ry/au):

     atom    1 type  1   force =     0.00000000    0.00000000    0.00000000
     atom    2 type  2   force =     0.00000000    0.00000000   -0.00000000
     atom    3 type  2   force =     0.00000000    0.00000000    0.00000000

     Total force =     0.000000     Total SCF correction =     0.000000


     Computing stress (Cartesian axis) and pressure

          total   stress  (Ry/bohr**3)                   (kbar)     P=  433.60
   0.00294757   0.00000000  -0.00000000        433.60      0.00     -0.00
   0.00000000   0.00294757  -0.00000000          0.00    433.60     -0.00
  -0.00000000  -0.00000000   0.00294757         -0.00     -0.00    433.60


     Writing output data file cerium.save

     init_run     :     11.63s CPU      4.52s WALL (       1 calls)
     electrons    :    288.48s CPU     93.60s WALL (       1 calls)
     forces       :      0.89s CPU      0.37s WALL (       1 calls)
     stress       :      2.99s CPU      1.13s WALL (       1 calls)

     Called by init_run:
     wfcinit      :     10.68s CPU      3.70s WALL (       1 calls)
     potinit      :      0.24s CPU      0.19s WALL (       1 calls)

     Called by electrons:
     c_bands      :    241.35s CPU     76.16s WALL (      40 calls)
     sum_band     :     37.40s CPU     10.14s WALL (      40 calls)
     v_of_rho     :      8.56s CPU      6.04s WALL (      41 calls)
     mix_rho      :      1.26s CPU      1.30s WALL (      40 calls)

     Called by c_bands:
     init_us_2    :      8.36s CPU      2.22s WALL (     498 calls)
     cegterg      :    230.97s CPU     71.80s WALL (     240 calls)

     Called by sum_band:

     Called by *egterg:
     h_psi        :    227.70s CPU     65.17s WALL (    1184 calls)
     g_psi        :      0.45s CPU      0.43s WALL (     938 calls)
     cdiaghg      :      0.81s CPU      0.43s WALL (    1178 calls)

     Called by h_psi:
     h_psi:pot    :    227.34s CPU     64.89s WALL (    1184 calls)
     h_psi:calbec :     20.24s CPU      5.31s WALL (    1184 calls)
     vloc_psi     :    197.93s CPU     54.49s WALL (    1184 calls)
     add_vuspsi   :      9.10s CPU      5.08s WALL (    1184 calls)

     General routines
     calbec       :     20.82s CPU      5.49s WALL (    1214 calls)
     fft          :      4.90s CPU      3.00s WALL (     458 calls)
     fftw         :    207.39s CPU     56.11s WALL (   15212 calls)
     davcio       :      0.00s CPU      0.00s WALL (       6 calls)


     PWSCF        :  5m 4.26s CPU     1m39.88s WALL


   This run was terminated on:  16:21:11  17Oct2017            

=------------------------------------------------------------------------------=
   JOB DONE.
=------------------------------------------------------------------------------=
