
     Program PWSCF v.6.1 (svn rev. 13369) starts on 17Oct2017 at 16:15:51 

     This program is part of the open-source Quantum ESPRESSO suite
     for quantum simulation of materials; please cite
         "P. Giannozzi et al., J. Phys.:Condens. Matter 21 395502 (2009);
          URL http://www.quantum-espresso.org", 
     in publications or presentations arising from this work. More details at
     http://www.quantum-espresso.org/quote

     Serial multi-threaded version, running on    4 processor cores
     Waiting for input...
     Reading input from standard input
     Message from routine read_cards :
     DEPRECATED: no units specified in ATOMIC_POSITIONS card
     Message from routine read_cards :
     ATOMIC_POSITIONS: units set to alat

     Current dimensions of program PWSCF are:
     Max number of different atomic species (ntypx) = 10
     Max number of k-points (npk) =  40000
     Max angular momentum in pseudopotentials (lmaxx) =  3
               file Ce.pbe-mt_fhi.UPF: wavefunction(s)  6p renormalized
               file O.pbe-mt_fhi.UPF: wavefunction(s)  4f renormalized

     G-vector sticks info
     --------------------
     sticks:   dense  smooth     PW     G-vecs:    dense   smooth      PW
     Sum        1159    1159    337                25821    25821    4015



     bravais-lattice index     =            2
     lattice parameter (alat)  =      10.2253  a.u.
     unit-cell volume          =     267.2811 (a.u.)^3
     number of atoms/cell      =            3
     number of atomic types    =            2
     number of electrons       =        16.00
     number of Kohn-Sham states=            8
     kinetic-energy cutoff     =      80.0000  Ry
     charge density cutoff     =     320.0000  Ry
     convergence threshold     =      1.0E-08
     mixing beta               =       0.7000
     number of iterations used =            8  plain     mixing
     Exchange-correlation      = PBE ( 1  4  3  4 0 0)

     celldm(1)=  10.225300  celldm(2)=   0.000000  celldm(3)=   0.000000
     celldm(4)=   0.000000  celldm(5)=   0.000000  celldm(6)=   0.000000

     crystal axes: (cart. coord. in units of alat)
               a(1) = (  -0.500000   0.000000   0.500000 )  
               a(2) = (   0.000000   0.500000   0.500000 )  
               a(3) = (  -0.500000   0.500000   0.000000 )  

     reciprocal axes: (cart. coord. in units 2 pi/alat)
               b(1) = ( -1.000000 -1.000000  1.000000 )  
               b(2) = (  1.000000  1.000000  1.000000 )  
               b(3) = ( -1.000000  1.000000 -1.000000 )  


     PseudoPot. # 1 for Ce read from file:
     /home/dmitry/qe/qe-6.1/pseudo/Ce.pbe-mt_fhi.UPF
     MD5 check sum: 1b15565eaeb76444e6dff07a3ca2f97f
     Pseudo is Norm-conserving, Zval =  4.0
     Generated using FHI98PP, converted with fhi2upf.x v.5.0.2
     Using radial grid of  555 points,  3 beta functions with: 
                l(1) =   1
                l(2) =   2
                l(3) =   3

     PseudoPot. # 2 for  O read from file:
     /home/dmitry/qe/qe-6.1/pseudo/O.pbe-mt_fhi.UPF
     MD5 check sum: 2ddb684ddb3c5d7407f47e9cdd68296a
     Pseudo is Norm-conserving, Zval =  6.0
     Generated using FHI98PP, converted with fhi2upf.x v.5.0.2
     Using radial grid of  473 points,  3 beta functions with: 
                l(1) =   0
                l(2) =   1
                l(3) =   3

     atomic species   valence    mass     pseudopotential
        Ce             4.00   140.11600     Ce( 1.00)
        O              6.00    15.99900      O( 1.00)

     48 Sym. Ops., with inversion, found



   Cartesian axes

     site n.     atom                  positions (alat units)
         1           Ce  tau(   1) = (   0.0000000   0.0000000   0.0000000  )
         2           O   tau(   2) = (   0.2500000   0.2500000   0.2500000  )
         3           O   tau(   3) = (   0.7500000   0.7500000   0.7500000  )

     number of k points=     6
                       cart. coord. in units 2pi/alat
        k(    1) = (  -0.1666667   0.1666667   0.1666667), wk =   0.1481481
        k(    2) = (   0.5000000  -0.5000000   0.8333333), wk =   0.4444444
        k(    3) = (   0.1666667  -0.1666667   0.5000000), wk =   0.4444444
        k(    4) = (  -0.1666667  -1.1666667   0.1666667), wk =   0.4444444
        k(    5) = (  -0.5000000  -0.8333333  -0.1666667), wk =   0.4444444
        k(    6) = (   0.5000000  -0.5000000  -0.5000000), wk =   0.0740741

     Dense  grid:    25821 G-vectors     FFT dimensions: (  45,  45,  45)

     Estimated max dynamical RAM per process >      23.19MB

     Initial potential from superposition of free atoms

     starting charge   15.99053, renormalised to   16.00000
     Starting wfc are   48 randomized atomic wfcs

     total cpu time spent up to now is        4.5 secs

     per-process dynamical memory:    18.7 Mb

     Self-consistent Calculation

     iteration #  1     ecut=    80.00 Ry     beta=0.70
     Davidson diagonalization with overlap
     ethr =  1.00E-02,  avg # of iterations =  2.0

     total cpu time spent up to now is        6.2 secs

     total energy              =     -69.19631125 Ry
     Harris-Foulkes estimate   =     -70.22167584 Ry
     estimated scf accuracy    <       1.41175945 Ry

     iteration #  2     ecut=    80.00 Ry     beta=0.70
     Davidson diagonalization with overlap
     ethr =  8.82E-03,  avg # of iterations =  8.0

     total cpu time spent up to now is        9.3 secs

     total energy              =     -68.81281898 Ry
     Harris-Foulkes estimate   =     -70.97224287 Ry
     estimated scf accuracy    <       7.37182389 Ry

     iteration #  3     ecut=    80.00 Ry     beta=0.70
     Davidson diagonalization with overlap
     ethr =  8.82E-03,  avg # of iterations =  4.8

     total cpu time spent up to now is       11.8 secs

     total energy              =     -69.89765083 Ry
     Harris-Foulkes estimate   =     -69.90446270 Ry
     estimated scf accuracy    <       0.04585122 Ry

     iteration #  4     ecut=    80.00 Ry     beta=0.70
     Davidson diagonalization with overlap
     ethr =  2.87E-04,  avg # of iterations =  3.8

     total cpu time spent up to now is       13.8 secs

     total energy              =     -69.90879977 Ry
     Harris-Foulkes estimate   =     -69.91955314 Ry
     estimated scf accuracy    <       0.03450255 Ry

     iteration #  5     ecut=    80.00 Ry     beta=0.70
     Davidson diagonalization with overlap
     ethr =  2.16E-04,  avg # of iterations =  4.3

     total cpu time spent up to now is       15.7 secs

     total energy              =     -69.92102146 Ry
     Harris-Foulkes estimate   =     -69.91963013 Ry
     estimated scf accuracy    <       0.00220851 Ry

     iteration #  6     ecut=    80.00 Ry     beta=0.70
     Davidson diagonalization with overlap
     ethr =  1.38E-05,  avg # of iterations =  5.7

     negative rho (up, down):  1.068E-08 0.000E+00

     total cpu time spent up to now is       18.4 secs

     total energy              =     -69.92080363 Ry
     Harris-Foulkes estimate   =     -69.92356749 Ry
     estimated scf accuracy    <       0.00812779 Ry

     iteration #  7     ecut=    80.00 Ry     beta=0.70
     Davidson diagonalization with overlap
     ethr =  1.38E-05,  avg # of iterations =  7.0

     total cpu time spent up to now is       21.4 secs

     total energy              =     -69.92438001 Ry
     Harris-Foulkes estimate   =     -69.92386187 Ry
     estimated scf accuracy    <       0.00291209 Ry

     iteration #  8     ecut=    80.00 Ry     beta=0.70
     Davidson diagonalization with overlap
     ethr =  1.38E-05,  avg # of iterations =  1.7

     total cpu time spent up to now is       23.0 secs

     total energy              =     -69.92421143 Ry
     Harris-Foulkes estimate   =     -69.92449182 Ry
     estimated scf accuracy    <       0.00376017 Ry

     iteration #  9     ecut=    80.00 Ry     beta=0.70
     Davidson diagonalization with overlap
     ethr =  1.38E-05,  avg # of iterations =  1.0

     total cpu time spent up to now is       24.5 secs

     total energy              =     -69.92363039 Ry
     Harris-Foulkes estimate   =     -69.92427855 Ry
     estimated scf accuracy    <       0.00296427 Ry

     iteration # 10     ecut=    80.00 Ry     beta=0.70
     Davidson diagonalization with overlap
     ethr =  1.38E-05,  avg # of iterations =  1.0

     total cpu time spent up to now is       26.0 secs

     total energy              =     -69.92372907 Ry
     Harris-Foulkes estimate   =     -69.92372367 Ry
     estimated scf accuracy    <       0.00136561 Ry

     iteration # 11     ecut=    80.00 Ry     beta=0.70
     Davidson diagonalization with overlap
     ethr =  8.54E-06,  avg # of iterations =  2.0

     total cpu time spent up to now is       27.6 secs

     total energy              =     -69.92386761 Ry
     Harris-Foulkes estimate   =     -69.92387459 Ry
     estimated scf accuracy    <       0.00058502 Ry

     iteration # 12     ecut=    80.00 Ry     beta=0.70
     Davidson diagonalization with overlap
     ethr =  3.66E-06,  avg # of iterations =  1.0

     total cpu time spent up to now is       29.1 secs

     total energy              =     -69.92394770 Ry
     Harris-Foulkes estimate   =     -69.92388465 Ry
     estimated scf accuracy    <       0.00053689 Ry

     iteration # 13     ecut=    80.00 Ry     beta=0.70
     Davidson diagonalization with overlap
     ethr =  3.36E-06,  avg # of iterations =  1.0

     total cpu time spent up to now is       30.6 secs

     total energy              =     -69.92382355 Ry
     Harris-Foulkes estimate   =     -69.92396044 Ry
     estimated scf accuracy    <       0.00068521 Ry

     iteration # 14     ecut=    80.00 Ry     beta=0.70
     Davidson diagonalization with overlap
     ethr =  3.36E-06,  avg # of iterations =  3.2

     total cpu time spent up to now is       32.3 secs

     total energy              =     -69.92382366 Ry
     Harris-Foulkes estimate   =     -69.92388645 Ry
     estimated scf accuracy    <       0.00019490 Ry

     iteration # 15     ecut=    80.00 Ry     beta=0.70
     Davidson diagonalization with overlap
     ethr =  1.22E-06,  avg # of iterations =  7.2

     total cpu time spent up to now is       35.5 secs

     total energy              =     -69.92383586 Ry
     Harris-Foulkes estimate   =     -69.92466126 Ry
     estimated scf accuracy    <       0.00335839 Ry

     iteration # 16     ecut=    80.00 Ry     beta=0.70
     Davidson diagonalization with overlap
     ethr =  1.22E-06,  avg # of iterations =  5.2

     total cpu time spent up to now is       38.2 secs

     total energy              =     -69.92397281 Ry
     Harris-Foulkes estimate   =     -69.92408728 Ry
     estimated scf accuracy    <       0.00032366 Ry

     iteration # 17     ecut=    80.00 Ry     beta=0.70
     Davidson diagonalization with overlap
     ethr =  1.22E-06,  avg # of iterations =  5.3

     total cpu time spent up to now is       40.9 secs

     total energy              =     -69.92365987 Ry
     Harris-Foulkes estimate   =     -69.92413085 Ry
     estimated scf accuracy    <       0.00018911 Ry

     iteration # 18     ecut=    80.00 Ry     beta=0.70
     Davidson diagonalization with overlap
     ethr =  1.18E-06,  avg # of iterations =  5.0

     total cpu time spent up to now is       43.5 secs

     total energy              =     -69.92362856 Ry
     Harris-Foulkes estimate   =     -69.92379042 Ry
     estimated scf accuracy    <       0.00010892 Ry

     iteration # 19     ecut=    80.00 Ry     beta=0.70
     Davidson diagonalization with overlap
     ethr =  6.81E-07,  avg # of iterations =  5.8

     total cpu time spent up to now is       46.6 secs

     total energy              =     -69.92375095 Ry
     Harris-Foulkes estimate   =     -69.92373321 Ry
     estimated scf accuracy    <       0.00099853 Ry

     iteration # 20     ecut=    80.00 Ry     beta=0.70
     Davidson diagonalization with overlap
     ethr =  6.81E-07,  avg # of iterations =  9.5

     total cpu time spent up to now is       50.5 secs

     total energy              =     -69.92405845 Ry
     Harris-Foulkes estimate   =     -69.92411454 Ry
     estimated scf accuracy    <       0.00010216 Ry

     iteration # 21     ecut=    80.00 Ry     beta=0.70
     Davidson diagonalization with overlap
     ethr =  6.38E-07,  avg # of iterations =  2.2

     total cpu time spent up to now is       52.2 secs

     total energy              =     -69.92414480 Ry
     Harris-Foulkes estimate   =     -69.92406694 Ry
     estimated scf accuracy    <       0.00002422 Ry

     iteration # 22     ecut=    80.00 Ry     beta=0.70
     Davidson diagonalization with overlap
     ethr =  1.51E-07,  avg # of iterations =  7.2

     total cpu time spent up to now is       55.6 secs

     total energy              =     -69.92418067 Ry
     Harris-Foulkes estimate   =     -69.92418568 Ry
     estimated scf accuracy    <       0.00037560 Ry

     iteration # 23     ecut=    80.00 Ry     beta=0.70
     Davidson diagonalization with overlap
     ethr =  1.51E-07,  avg # of iterations =  1.0

     total cpu time spent up to now is       57.1 secs

     total energy              =     -69.92416382 Ry
     Harris-Foulkes estimate   =     -69.92418115 Ry
     estimated scf accuracy    <       0.00036900 Ry

     iteration # 24     ecut=    80.00 Ry     beta=0.70
     Davidson diagonalization with overlap
     ethr =  1.51E-07,  avg # of iterations =  1.0

     total cpu time spent up to now is       58.5 secs

     total energy              =     -69.92410333 Ry
     Harris-Foulkes estimate   =     -69.92416440 Ry
     estimated scf accuracy    <       0.00032401 Ry

     iteration # 25     ecut=    80.00 Ry     beta=0.70
     Davidson diagonalization with overlap
     ethr =  1.51E-07,  avg # of iterations =  5.3

     total cpu time spent up to now is       61.1 secs

     total energy              =     -69.92412622 Ry
     Harris-Foulkes estimate   =     -69.92412433 Ry
     estimated scf accuracy    <       0.00003517 Ry

     iteration # 26     ecut=    80.00 Ry     beta=0.70
     Davidson diagonalization with overlap
     ethr =  1.51E-07,  avg # of iterations =  1.0

     total cpu time spent up to now is       62.6 secs

     total energy              =     -69.92412161 Ry
     Harris-Foulkes estimate   =     -69.92412659 Ry
     estimated scf accuracy    <       0.00002865 Ry

     iteration # 27     ecut=    80.00 Ry     beta=0.70
     Davidson diagonalization with overlap
     ethr =  1.51E-07,  avg # of iterations =  1.0

     total cpu time spent up to now is       64.1 secs

     total energy              =     -69.92412024 Ry
     Harris-Foulkes estimate   =     -69.92412214 Ry
     estimated scf accuracy    <       0.00001825 Ry

     iteration # 28     ecut=    80.00 Ry     beta=0.70
     Davidson diagonalization with overlap
     ethr =  1.14E-07,  avg # of iterations =  2.5

     total cpu time spent up to now is       65.7 secs

     total energy              =     -69.92412418 Ry
     Harris-Foulkes estimate   =     -69.92412292 Ry
     estimated scf accuracy    <       0.00000271 Ry

     iteration # 29     ecut=    80.00 Ry     beta=0.70
     Davidson diagonalization with overlap
     ethr =  1.69E-08,  avg # of iterations =  5.3

     total cpu time spent up to now is       68.2 secs

     total energy              =     -69.92412756 Ry
     Harris-Foulkes estimate   =     -69.92412745 Ry
     estimated scf accuracy    <       0.00000088 Ry

     iteration # 30     ecut=    80.00 Ry     beta=0.70
     Davidson diagonalization with overlap
     ethr =  5.53E-09,  avg # of iterations =  4.7

     total cpu time spent up to now is       70.1 secs

     total energy              =     -69.92412820 Ry
     Harris-Foulkes estimate   =     -69.92412771 Ry
     estimated scf accuracy    <       0.00000154 Ry

     iteration # 31     ecut=    80.00 Ry     beta=0.70
     Davidson diagonalization with overlap
     ethr =  5.53E-09,  avg # of iterations =  4.0

     total cpu time spent up to now is       71.9 secs

     total energy              =     -69.92412838 Ry
     Harris-Foulkes estimate   =     -69.92412839 Ry
     estimated scf accuracy    <       0.00000476 Ry

     iteration # 32     ecut=    80.00 Ry     beta=0.70
     Davidson diagonalization with overlap
     ethr =  5.53E-09,  avg # of iterations =  1.0

     total cpu time spent up to now is       73.5 secs

     total energy              =     -69.92412817 Ry
     Harris-Foulkes estimate   =     -69.92412840 Ry
     estimated scf accuracy    <       0.00000487 Ry

     iteration # 33     ecut=    80.00 Ry     beta=0.70
     Davidson diagonalization with overlap
     ethr =  5.53E-09,  avg # of iterations =  1.0

     total cpu time spent up to now is       74.9 secs

     total energy              =     -69.92412983 Ry
     Harris-Foulkes estimate   =     -69.92412819 Ry
     estimated scf accuracy    <       0.00000449 Ry

     iteration # 34     ecut=    80.00 Ry     beta=0.70
     Davidson diagonalization with overlap
     ethr =  5.53E-09,  avg # of iterations =  5.2

     total cpu time spent up to now is       77.7 secs

     total energy              =     -69.92412597 Ry
     Harris-Foulkes estimate   =     -69.92413047 Ry
     estimated scf accuracy    <       0.00001708 Ry

     iteration # 35     ecut=    80.00 Ry     beta=0.70
     Davidson diagonalization with overlap
     ethr =  5.53E-09,  avg # of iterations =  6.3

     total cpu time spent up to now is       80.6 secs

     total energy              =     -69.92412742 Ry
     Harris-Foulkes estimate   =     -69.92412751 Ry
     estimated scf accuracy    <       0.00000074 Ry

     iteration # 36     ecut=    80.00 Ry     beta=0.70
     Davidson diagonalization with overlap
     ethr =  4.64E-09,  avg # of iterations =  1.0

     total cpu time spent up to now is       82.1 secs

     total energy              =     -69.92412728 Ry
     Harris-Foulkes estimate   =     -69.92412744 Ry
     estimated scf accuracy    <       0.00000052 Ry

     iteration # 37     ecut=    80.00 Ry     beta=0.70
     Davidson diagonalization with overlap
     ethr =  3.23E-09,  avg # of iterations =  5.5

     total cpu time spent up to now is       84.6 secs

     total energy              =     -69.92412762 Ry
     Harris-Foulkes estimate   =     -69.92412764 Ry
     estimated scf accuracy    <       0.00000045 Ry

     iteration # 38     ecut=    80.00 Ry     beta=0.70
     Davidson diagonalization with overlap
     ethr =  2.83E-09,  avg # of iterations =  1.0

     total cpu time spent up to now is       86.1 secs

     total energy              =     -69.92412766 Ry
     Harris-Foulkes estimate   =     -69.92412763 Ry
     estimated scf accuracy    <       0.00000040 Ry

     iteration # 39     ecut=    80.00 Ry     beta=0.70
     Davidson diagonalization with overlap
     ethr =  2.51E-09,  avg # of iterations =  1.0

     total cpu time spent up to now is       87.6 secs

     total energy              =     -69.92412775 Ry
     Harris-Foulkes estimate   =     -69.92412767 Ry
     estimated scf accuracy    <       0.00000049 Ry

     iteration # 40     ecut=    80.00 Ry     beta=0.70
     Davidson diagonalization with overlap
     ethr =  2.51E-09,  avg # of iterations =  2.2

     total cpu time spent up to now is       89.2 secs

     total energy              =     -69.92412752 Ry
     Harris-Foulkes estimate   =     -69.92412776 Ry
     estimated scf accuracy    <       0.00000076 Ry

     iteration # 41     ecut=    80.00 Ry     beta=0.70
     Davidson diagonalization with overlap
     ethr =  2.51E-09,  avg # of iterations =  1.3

     total cpu time spent up to now is       90.7 secs

     total energy              =     -69.92412751 Ry
     Harris-Foulkes estimate   =     -69.92412755 Ry
     estimated scf accuracy    <       0.00000027 Ry

     iteration # 42     ecut=    80.00 Ry     beta=0.70
     Davidson diagonalization with overlap
     ethr =  1.70E-09,  avg # of iterations =  2.7

     total cpu time spent up to now is       92.6 secs

     total energy              =     -69.92412756 Ry
     Harris-Foulkes estimate   =     -69.92412755 Ry
     estimated scf accuracy    <       0.00000004 Ry

     iteration # 43     ecut=    80.00 Ry     beta=0.70
     Davidson diagonalization with overlap
     ethr =  2.32E-10,  avg # of iterations =  5.5

     total cpu time spent up to now is       95.4 secs

     End of self-consistent calculation

          k =-0.1667 0.1667 0.1667 (  3242 PWs)   bands (ev):

   -10.5494  -9.2609   2.1350   2.1350   2.5051   5.4160   5.5238   5.5238

          k = 0.5000-0.5000 0.8333 (  3223 PWs)   bands (ev):

   -10.1218  -9.6618   2.7251   3.1553   4.2478   4.3086   4.7070   5.8039

          k = 0.1667-0.1667 0.5000 (  3238 PWs)   bands (ev):

   -10.1883  -9.6276   2.7057   2.7223   3.7147   3.8758   5.6726   5.6770

          k =-0.1667-1.1667 0.1667 (  3231 PWs)   bands (ev):

    -9.9951  -9.7536   2.3672   3.8012   3.8144   4.8971   5.1936   5.4627

          k =-0.5000-0.8333-0.1667 (  3232 PWs)   bands (ev):

    -9.9664  -9.7808   2.8829   3.3116   4.0363   4.7773   4.8582   5.5780

          k = 0.5000-0.5000-0.5000 (  3214 PWs)   bands (ev):

   -10.2595  -9.5121   2.8484   2.8484   4.1902   4.7857   5.1696   5.1696

     highest occupied level (ev):     5.8039

!    total energy              =     -69.92412759 Ry
     Harris-Foulkes estimate   =     -69.92412759 Ry
     estimated scf accuracy    <          2.4E-09 Ry

     The total energy is the sum of the following terms:

     one-electron contribution =     -19.84493836 Ry
     hartree contribution      =      20.87438518 Ry
     xc contribution           =     -16.29361496 Ry
     ewald contribution        =     -54.65995945 Ry

     convergence has been achieved in  43 iterations

     Forces acting on atoms (cartesian axes, Ry/au):

     atom    1 type  1   force =    -0.00000000   -0.00000000   -0.00000000
     atom    2 type  2   force =     0.00000000    0.00000000    0.00000000
     atom    3 type  2   force =    -0.00000000   -0.00000000   -0.00000000

     Total force =     0.000000     Total SCF correction =     0.000000


     Computing stress (Cartesian axis) and pressure

          total   stress  (Ry/bohr**3)                   (kbar)     P=  433.86
   0.00294929  -0.00000000  -0.00000000        433.86     -0.00     -0.00
   0.00000000   0.00294929   0.00000000          0.00    433.86      0.00
   0.00000000   0.00000000   0.00294929          0.00      0.00    433.86


     Writing output data file cerium.save

     init_run     :     11.31s CPU      4.35s WALL (       1 calls)
     electrons    :    288.04s CPU     90.94s WALL (       1 calls)
     forces       :      0.80s CPU      0.32s WALL (       1 calls)
     stress       :      3.03s CPU      1.09s WALL (       1 calls)

     Called by init_run:
     wfcinit      :     10.48s CPU      3.59s WALL (       1 calls)
     potinit      :      0.24s CPU      0.19s WALL (       1 calls)

     Called by electrons:
     c_bands      :    237.77s CPU     72.40s WALL (      43 calls)
     sum_band     :     39.78s CPU     10.81s WALL (      43 calls)
     v_of_rho     :      9.34s CPU      6.54s WALL (      44 calls)
     mix_rho      :      1.20s CPU      1.21s WALL (      43 calls)

     Called by c_bands:
     init_us_2    :      7.72s CPU      2.08s WALL (     534 calls)
     cegterg      :    227.36s CPU     68.39s WALL (     258 calls)

     Called by sum_band:

     Called by *egterg:
     h_psi        :    225.66s CPU     63.78s WALL (    1184 calls)
     g_psi        :      0.40s CPU      0.35s WALL (     920 calls)
     cdiaghg      :      0.77s CPU      0.41s WALL (    1178 calls)

     Called by h_psi:
     h_psi:pot    :    225.37s CPU     63.55s WALL (    1184 calls)
     h_psi:calbec :     16.56s CPU      4.36s WALL (    1184 calls)
     vloc_psi     :    199.06s CPU     55.06s WALL (    1184 calls)
     add_vuspsi   :      9.68s CPU      4.12s WALL (    1184 calls)

     General routines
     calbec       :     17.08s CPU      4.51s WALL (    1214 calls)
     fft          :      5.28s CPU      3.25s WALL (     491 calls)
     fftw         :    207.60s CPU     56.23s WALL (   15322 calls)
     davcio       :      0.00s CPU      0.00s WALL (       6 calls)


     PWSCF        :  5m 3.44s CPU     1m36.96s WALL


   This run was terminated on:  16:17:28  17Oct2017            

=------------------------------------------------------------------------------=
   JOB DONE.
=------------------------------------------------------------------------------=
