
     Program PWSCF v.6.1 (svn rev. 13369) starts on 17Oct2017 at 16:14:49 

     This program is part of the open-source Quantum ESPRESSO suite
     for quantum simulation of materials; please cite
         "P. Giannozzi et al., J. Phys.:Condens. Matter 21 395502 (2009);
          URL http://www.quantum-espresso.org", 
     in publications or presentations arising from this work. More details at
     http://www.quantum-espresso.org/quote

     Serial multi-threaded version, running on    4 processor cores
     Waiting for input...
     Reading input from standard input
     Message from routine read_cards :
     DEPRECATED: no units specified in ATOMIC_POSITIONS card
     Message from routine read_cards :
     ATOMIC_POSITIONS: units set to alat

     Current dimensions of program PWSCF are:
     Max number of different atomic species (ntypx) = 10
     Max number of k-points (npk) =  40000
     Max angular momentum in pseudopotentials (lmaxx) =  3
               file Ce.pbe-mt_fhi.UPF: wavefunction(s)  6p renormalized
               file O.pbe-mt_fhi.UPF: wavefunction(s)  4f renormalized

     G-vector sticks info
     --------------------
     sticks:   dense  smooth     PW     G-vecs:    dense   smooth      PW
     Sum        1015    1015    301                21187    21187    3479



     bravais-lattice index     =            2
     lattice parameter (alat)  =      10.2253  a.u.
     unit-cell volume          =     267.2811 (a.u.)^3
     number of atoms/cell      =            3
     number of atomic types    =            2
     number of electrons       =        16.00
     number of Kohn-Sham states=            8
     kinetic-energy cutoff     =      70.0000  Ry
     charge density cutoff     =     280.0000  Ry
     convergence threshold     =      1.0E-08
     mixing beta               =       0.7000
     number of iterations used =            8  plain     mixing
     Exchange-correlation      = PBE ( 1  4  3  4 0 0)

     celldm(1)=  10.225300  celldm(2)=   0.000000  celldm(3)=   0.000000
     celldm(4)=   0.000000  celldm(5)=   0.000000  celldm(6)=   0.000000

     crystal axes: (cart. coord. in units of alat)
               a(1) = (  -0.500000   0.000000   0.500000 )  
               a(2) = (   0.000000   0.500000   0.500000 )  
               a(3) = (  -0.500000   0.500000   0.000000 )  

     reciprocal axes: (cart. coord. in units 2 pi/alat)
               b(1) = ( -1.000000 -1.000000  1.000000 )  
               b(2) = (  1.000000  1.000000  1.000000 )  
               b(3) = ( -1.000000  1.000000 -1.000000 )  


     PseudoPot. # 1 for Ce read from file:
     /home/dmitry/qe/qe-6.1/pseudo/Ce.pbe-mt_fhi.UPF
     MD5 check sum: 1b15565eaeb76444e6dff07a3ca2f97f
     Pseudo is Norm-conserving, Zval =  4.0
     Generated using FHI98PP, converted with fhi2upf.x v.5.0.2
     Using radial grid of  555 points,  3 beta functions with: 
                l(1) =   1
                l(2) =   2
                l(3) =   3

     PseudoPot. # 2 for  O read from file:
     /home/dmitry/qe/qe-6.1/pseudo/O.pbe-mt_fhi.UPF
     MD5 check sum: 2ddb684ddb3c5d7407f47e9cdd68296a
     Pseudo is Norm-conserving, Zval =  6.0
     Generated using FHI98PP, converted with fhi2upf.x v.5.0.2
     Using radial grid of  473 points,  3 beta functions with: 
                l(1) =   0
                l(2) =   1
                l(3) =   3

     atomic species   valence    mass     pseudopotential
        Ce             4.00   140.11600     Ce( 1.00)
        O              6.00    15.99900      O( 1.00)

     48 Sym. Ops., with inversion, found



   Cartesian axes

     site n.     atom                  positions (alat units)
         1           Ce  tau(   1) = (   0.0000000   0.0000000   0.0000000  )
         2           O   tau(   2) = (   0.2500000   0.2500000   0.2500000  )
         3           O   tau(   3) = (   0.7500000   0.7500000   0.7500000  )

     number of k points=     6
                       cart. coord. in units 2pi/alat
        k(    1) = (  -0.1666667   0.1666667   0.1666667), wk =   0.1481481
        k(    2) = (   0.5000000  -0.5000000   0.8333333), wk =   0.4444444
        k(    3) = (   0.1666667  -0.1666667   0.5000000), wk =   0.4444444
        k(    4) = (  -0.1666667  -1.1666667   0.1666667), wk =   0.4444444
        k(    5) = (  -0.5000000  -0.8333333  -0.1666667), wk =   0.4444444
        k(    6) = (   0.5000000  -0.5000000  -0.5000000), wk =   0.0740741

     Dense  grid:    21187 G-vectors     FFT dimensions: (  40,  40,  40)

     Estimated max dynamical RAM per process >      18.28MB

     Initial potential from superposition of free atoms

     starting charge   15.99053, renormalised to   16.00000
     Starting wfc are   48 randomized atomic wfcs

     total cpu time spent up to now is        3.2 secs

     per-process dynamical memory:    15.0 Mb

     Self-consistent Calculation

     iteration #  1     ecut=    70.00 Ry     beta=0.70
     Davidson diagonalization with overlap
     ethr =  1.00E-02,  avg # of iterations =  2.0

     total cpu time spent up to now is        4.3 secs

     total energy              =     -69.19457689 Ry
     Harris-Foulkes estimate   =     -70.21499751 Ry
     estimated scf accuracy    <       1.40568857 Ry

     iteration #  2     ecut=    70.00 Ry     beta=0.70
     Davidson diagonalization with overlap
     ethr =  8.79E-03,  avg # of iterations =  7.8

     total cpu time spent up to now is        6.5 secs

     total energy              =     -68.82873427 Ry
     Harris-Foulkes estimate   =     -70.97311181 Ry
     estimated scf accuracy    <       7.28908029 Ry

     iteration #  3     ecut=    70.00 Ry     beta=0.70
     Davidson diagonalization with overlap
     ethr =  8.79E-03,  avg # of iterations =  5.0

     total cpu time spent up to now is        8.2 secs

     total energy              =     -69.89513067 Ry
     Harris-Foulkes estimate   =     -69.90071353 Ry
     estimated scf accuracy    <       0.04096081 Ry

     iteration #  4     ecut=    70.00 Ry     beta=0.70
     Davidson diagonalization with overlap
     ethr =  2.56E-04,  avg # of iterations =  4.2

     total cpu time spent up to now is        9.6 secs

     total energy              =     -69.90925703 Ry
     Harris-Foulkes estimate   =     -69.91770160 Ry
     estimated scf accuracy    <       0.03056091 Ry

     iteration #  5     ecut=    70.00 Ry     beta=0.70
     Davidson diagonalization with overlap
     ethr =  1.91E-04,  avg # of iterations =  3.8

     negative rho (up, down):  3.351E-08 0.000E+00

     total cpu time spent up to now is       10.9 secs

     total energy              =     -69.91923242 Ry
     Harris-Foulkes estimate   =     -69.91764578 Ry
     estimated scf accuracy    <       0.00125435 Ry

     iteration #  6     ecut=    70.00 Ry     beta=0.70
     Davidson diagonalization with overlap
     ethr =  7.84E-06,  avg # of iterations =  8.8

     total cpu time spent up to now is       13.0 secs

     total energy              =     -69.91868842 Ry
     Harris-Foulkes estimate   =     -69.92156024 Ry
     estimated scf accuracy    <       0.00639004 Ry

     iteration #  7     ecut=    70.00 Ry     beta=0.70
     Davidson diagonalization with overlap
     ethr =  7.84E-06,  avg # of iterations =  8.8

     total cpu time spent up to now is       15.5 secs

     total energy              =     -69.92129834 Ry
     Harris-Foulkes estimate   =     -69.92244220 Ry
     estimated scf accuracy    <       0.00713355 Ry

     iteration #  8     ecut=    70.00 Ry     beta=0.70
     Davidson diagonalization with overlap
     ethr =  7.84E-06,  avg # of iterations =  2.8

     total cpu time spent up to now is       16.7 secs

     total energy              =     -69.92061492 Ry
     Harris-Foulkes estimate   =     -69.92148818 Ry
     estimated scf accuracy    <       0.00302023 Ry

     iteration #  9     ecut=    70.00 Ry     beta=0.70
     Davidson diagonalization with overlap
     ethr =  7.84E-06,  avg # of iterations =  5.2

     total cpu time spent up to now is       18.1 secs

     total energy              =     -69.92117763 Ry
     Harris-Foulkes estimate   =     -69.92118301 Ry
     estimated scf accuracy    <       0.00001874 Ry

     iteration # 10     ecut=    70.00 Ry     beta=0.70
     Davidson diagonalization with overlap
     ethr =  1.17E-07,  avg # of iterations =  9.3

     total cpu time spent up to now is       20.8 secs

     total energy              =     -69.92123363 Ry
     Harris-Foulkes estimate   =     -69.92124164 Ry
     estimated scf accuracy    <       0.00005069 Ry

     iteration # 11     ecut=    70.00 Ry     beta=0.70
     Davidson diagonalization with overlap
     ethr =  1.17E-07,  avg # of iterations =  1.0

     total cpu time spent up to now is       21.8 secs

     total energy              =     -69.92122363 Ry
     Harris-Foulkes estimate   =     -69.92123446 Ry
     estimated scf accuracy    <       0.00003050 Ry

     iteration # 12     ecut=    70.00 Ry     beta=0.70
     Davidson diagonalization with overlap
     ethr =  1.17E-07,  avg # of iterations =  5.2

     total cpu time spent up to now is       23.6 secs

     total energy              =     -69.92123334 Ry
     Harris-Foulkes estimate   =     -69.92123689 Ry
     estimated scf accuracy    <       0.00001396 Ry

     iteration # 13     ecut=    70.00 Ry     beta=0.70
     Davidson diagonalization with overlap
     ethr =  8.73E-08,  avg # of iterations =  1.2

     total cpu time spent up to now is       24.6 secs

     total energy              =     -69.92123390 Ry
     Harris-Foulkes estimate   =     -69.92123410 Ry
     estimated scf accuracy    <       0.00000453 Ry

     iteration # 14     ecut=    70.00 Ry     beta=0.70
     Davidson diagonalization with overlap
     ethr =  2.83E-08,  avg # of iterations =  4.3

     total cpu time spent up to now is       25.8 secs

     total energy              =     -69.92123475 Ry
     Harris-Foulkes estimate   =     -69.92123460 Ry
     estimated scf accuracy    <       0.00000115 Ry

     iteration # 15     ecut=    70.00 Ry     beta=0.70
     Davidson diagonalization with overlap
     ethr =  7.19E-09,  avg # of iterations =  4.3

     total cpu time spent up to now is       27.1 secs

     total energy              =     -69.92123465 Ry
     Harris-Foulkes estimate   =     -69.92123508 Ry
     estimated scf accuracy    <       0.00000050 Ry

     iteration # 16     ecut=    70.00 Ry     beta=0.70
     Davidson diagonalization with overlap
     ethr =  3.14E-09,  avg # of iterations =  5.8

     total cpu time spent up to now is       29.1 secs

     total energy              =     -69.92123572 Ry
     Harris-Foulkes estimate   =     -69.92123565 Ry
     estimated scf accuracy    <       0.00000305 Ry

     iteration # 17     ecut=    70.00 Ry     beta=0.70
     Davidson diagonalization with overlap
     ethr =  3.14E-09,  avg # of iterations =  1.0

     total cpu time spent up to now is       30.1 secs

     total energy              =     -69.92123530 Ry
     Harris-Foulkes estimate   =     -69.92123574 Ry
     estimated scf accuracy    <       0.00000317 Ry

     iteration # 18     ecut=    70.00 Ry     beta=0.70
     Davidson diagonalization with overlap
     ethr =  3.14E-09,  avg # of iterations =  1.2

     total cpu time spent up to now is       31.1 secs

     total energy              =     -69.92123536 Ry
     Harris-Foulkes estimate   =     -69.92123532 Ry
     estimated scf accuracy    <       0.00000213 Ry

     iteration # 19     ecut=    70.00 Ry     beta=0.70
     Davidson diagonalization with overlap
     ethr =  3.14E-09,  avg # of iterations =  1.0

     total cpu time spent up to now is       32.2 secs

     total energy              =     -69.92123491 Ry
     Harris-Foulkes estimate   =     -69.92123537 Ry
     estimated scf accuracy    <       0.00000216 Ry

     iteration # 20     ecut=    70.00 Ry     beta=0.70
     Davidson diagonalization with overlap
     ethr =  3.14E-09,  avg # of iterations =  4.3

     total cpu time spent up to now is       33.6 secs

     total energy              =     -69.92123516 Ry
     Harris-Foulkes estimate   =     -69.92123513 Ry
     estimated scf accuracy    <       0.00000009 Ry

     iteration # 21     ecut=    70.00 Ry     beta=0.70
     Davidson diagonalization with overlap
     ethr =  5.89E-10,  avg # of iterations =  3.8

     total cpu time spent up to now is       34.8 secs

     total energy              =     -69.92123509 Ry
     Harris-Foulkes estimate   =     -69.92123517 Ry
     estimated scf accuracy    <       0.00000013 Ry

     iteration # 22     ecut=    70.00 Ry     beta=0.70
     Davidson diagonalization with overlap
     ethr =  5.89E-10,  avg # of iterations =  6.0

     total cpu time spent up to now is       36.8 secs

     total energy              =     -69.92123515 Ry
     Harris-Foulkes estimate   =     -69.92123524 Ry
     estimated scf accuracy    <       0.00000044 Ry

     iteration # 23     ecut=    70.00 Ry     beta=0.70
     Davidson diagonalization with overlap
     ethr =  5.89E-10,  avg # of iterations =  3.5

     total cpu time spent up to now is       38.3 secs

     total energy              =     -69.92123520 Ry
     Harris-Foulkes estimate   =     -69.92123517 Ry
     estimated scf accuracy    <       0.00000012 Ry

     iteration # 24     ecut=    70.00 Ry     beta=0.70
     Davidson diagonalization with overlap
     ethr =  5.89E-10,  avg # of iterations =  1.0

     total cpu time spent up to now is       39.4 secs

     total energy              =     -69.92123529 Ry
     Harris-Foulkes estimate   =     -69.92123520 Ry
     estimated scf accuracy    <       0.00000018 Ry

     iteration # 25     ecut=    70.00 Ry     beta=0.70
     Davidson diagonalization with overlap
     ethr =  5.89E-10,  avg # of iterations =  5.2

     total cpu time spent up to now is       41.5 secs

     total energy              =     -69.92123526 Ry
     Harris-Foulkes estimate   =     -69.92123535 Ry
     estimated scf accuracy    <       0.00000120 Ry

     iteration # 26     ecut=    70.00 Ry     beta=0.70
     Davidson diagonalization with overlap
     ethr =  5.89E-10,  avg # of iterations =  2.2

     total cpu time spent up to now is       42.9 secs

     total energy              =     -69.92123508 Ry
     Harris-Foulkes estimate   =     -69.92123527 Ry
     estimated scf accuracy    <       0.00000085 Ry

     iteration # 27     ecut=    70.00 Ry     beta=0.70
     Davidson diagonalization with overlap
     ethr =  5.89E-10,  avg # of iterations =  5.2

     total cpu time spent up to now is       44.7 secs

     total energy              =     -69.92123518 Ry
     Harris-Foulkes estimate   =     -69.92123516 Ry
     estimated scf accuracy    <       0.00000003 Ry

     iteration # 28     ecut=    70.00 Ry     beta=0.70
     Davidson diagonalization with overlap
     ethr =  1.74E-10,  avg # of iterations =  5.3

     total cpu time spent up to now is       46.4 secs

     total energy              =     -69.92123513 Ry
     Harris-Foulkes estimate   =     -69.92123520 Ry
     estimated scf accuracy    <       0.00000021 Ry

     iteration # 29     ecut=    70.00 Ry     beta=0.70
     Davidson diagonalization with overlap
     ethr =  1.74E-10,  avg # of iterations =  5.2

     total cpu time spent up to now is       48.3 secs

     End of self-consistent calculation

          k =-0.1667 0.1667 0.1667 (  2659 PWs)   bands (ev):

   -10.5498  -9.2614   2.1346   2.1346   2.5052   5.4164   5.5234   5.5234

          k = 0.5000-0.5000 0.8333 (  2639 PWs)   bands (ev):

   -10.1222  -9.6622   2.7253   3.1554   4.2486   4.3096   4.7072   5.8041

          k = 0.1667-0.1667 0.5000 (  2645 PWs)   bands (ev):

   -10.1886  -9.6280   2.7057   2.7223   3.7153   3.8763   5.6730   5.6768

          k =-0.1667-1.1667 0.1667 (  2633 PWs)   bands (ev):

    -9.9955  -9.7540   2.3676   3.8016   3.8147   4.8989   5.1939   5.4629

          k =-0.5000-0.8333-0.1667 (  2638 PWs)   bands (ev):

    -9.9668  -9.7812   2.8832   3.3119   4.0364   4.7774   4.8599   5.5785

          k = 0.5000-0.5000-0.5000 (  2638 PWs)   bands (ev):

   -10.2599  -9.5125   2.8485   2.8485   4.1915   4.7864   5.1698   5.1698

     highest occupied level (ev):     5.8041

!    total energy              =     -69.92123516 Ry
     Harris-Foulkes estimate   =     -69.92123516 Ry
     estimated scf accuracy    <          4.5E-10 Ry

     The total energy is the sum of the following terms:

     one-electron contribution =     -19.83895566 Ry
     hartree contribution      =      20.87141826 Ry
     xc contribution           =     -16.29373831 Ry
     ewald contribution        =     -54.65995945 Ry

     convergence has been achieved in  29 iterations

     Forces acting on atoms (cartesian axes, Ry/au):

     atom    1 type  1   force =     0.00000000    0.00000000    0.00000000
     atom    2 type  2   force =     0.00000000    0.00000000    0.00000000
     atom    3 type  2   force =     0.00000000    0.00000000    0.00000000

     Total force =     0.000000     Total SCF correction =     0.000000


     Computing stress (Cartesian axis) and pressure

          total   stress  (Ry/bohr**3)                   (kbar)     P=  415.81
   0.00282662  -0.00000000   0.00000000        415.81     -0.00      0.00
  -0.00000000   0.00282662   0.00000000         -0.00    415.81      0.00
   0.00000000   0.00000000   0.00282662          0.00      0.00    415.81


     Writing output data file cerium.save

     init_run     :      7.76s CPU      3.06s WALL (       1 calls)
     electrons    :    144.90s CPU     45.03s WALL (       1 calls)
     forces       :      0.62s CPU      0.25s WALL (       1 calls)
     stress       :      2.62s CPU      0.87s WALL (       1 calls)

     Called by init_run:
     wfcinit      :      7.01s CPU      2.41s WALL (       1 calls)
     potinit      :      0.17s CPU      0.12s WALL (       1 calls)

     Called by electrons:
     c_bands      :    122.56s CPU     36.95s WALL (      29 calls)
     sum_band     :     17.36s CPU      4.65s WALL (      29 calls)
     v_of_rho     :      4.35s CPU      2.88s WALL (      30 calls)
     mix_rho      :      0.59s CPU      0.59s WALL (      29 calls)

     Called by c_bands:
     init_us_2    :      4.33s CPU      1.17s WALL (     366 calls)
     cegterg      :    116.22s CPU     34.76s WALL (     174 calls)

     Called by sum_band:

     Called by *egterg:
     h_psi        :    114.11s CPU     31.88s WALL (     927 calls)
     g_psi        :      0.28s CPU      0.22s WALL (     747 calls)
     cdiaghg      :      0.80s CPU      0.33s WALL (     921 calls)

     Called by h_psi:
     h_psi:pot    :    113.88s CPU     31.74s WALL (     927 calls)
     h_psi:calbec :      9.74s CPU      2.58s WALL (     927 calls)
     vloc_psi     :     96.36s CPU     26.64s WALL (     927 calls)
     add_vuspsi   :      7.74s CPU      2.50s WALL (     927 calls)

     General routines
     calbec       :     10.18s CPU      2.70s WALL (     957 calls)
     fft          :      2.42s CPU      1.34s WALL (     337 calls)
     fftw         :     98.48s CPU     26.49s WALL (   11290 calls)
     davcio       :      0.00s CPU      0.00s WALL (       6 calls)


     PWSCF        :  2m36.18s CPU     0m49.46s WALL


   This run was terminated on:  16:15:39  17Oct2017            

=------------------------------------------------------------------------------=
   JOB DONE.
=------------------------------------------------------------------------------=
